LAMMPS data file. msi2lmp v3.9.9 / 05 Nov 2018 / CGCMM for h2o_swdp

4000 atoms
3200 bonds
800 angles
0 dihedrals
0 impropers
4 atom types
3 bond types
1 angle types
0.084738 100.084738 xlo xhi
0.095625 100.095625 ylo yhi
0.235719 100.235719 zlo zhi

Masses

   1   15.199  # ODw DC
   2    1.008  # Hw
   3    1.e-16  # M
   4    0.800  # ODw DP

Bond Coeffs

   1   540.6336     0.9600
   2   500.0        0.240340
   3   500.000000     0.000000  # ODw DC-DP

Angle Coeffs

   1    37.950526   104.520

Atoms

      1       1    1   1.7162  5.438600e+01  5.726500e+01  5.506000e+01  0 0 0 # ODw DC
      2       1    2   0.5573  5.505700e+01  5.717200e+01  5.573700e+01  0 0 0 # Hw
      3       1    2   0.5573  5.444100e+01  5.645400e+01  5.455500e+01  0 0 0 # Hw
      4       1    3  -1.1146  5.453500e+01  5.708000e+01  5.509500e+01  0 0 0 # M
      5       2    1   1.7162  4.334600e+01  5.329500e+01  6.015500e+01  0 0 0 # ODw DC
      6       2    2   0.5573  4.276900e+01  5.269000e+01  6.062000e+01  0 0 0 # Hw
      7       2    2   0.5573  4.276300e+01  5.397800e+01  5.982600e+01  0 0 0 # Hw
      8       2    3  -1.1146  4.310900e+01  5.331000e+01  6.018300e+01  0 0 0 # M
      9       3    1   1.7162  5.226800e+01  5.175900e+01  6.044800e+01  0 0 0 # ODw DC
     10       3    2   0.5573  5.192000e+01  5.126900e+01  6.119400e+01  0 0 0 # Hw
     11       3    2   0.5573  5.296700e+01  5.120500e+01  6.010200e+01  0 0 0 # Hw
     12       3    3  -1.1146  5.234000e+01  5.154500e+01  6.053000e+01  0 0 0 # M
     13       4    1   1.7162  5.206200e+01  5.450500e+01  4.727300e+01  0 0 0 # ODw DC
     14       4    2   0.5573  5.175600e+01  5.362600e+01  4.704900e+01  0 0 0 # Hw
     15       4    2   0.5573  5.301100e+01  5.441500e+01  4.735300e+01  0 0 0 # Hw
     16       4    3  -1.1146  5.219300e+01  5.430600e+01  4.724400e+01  0 0 0 # M
     17       5    1   1.7162  6.031600e+01  5.384900e+01  5.950200e+01  0 0 0 # ODw DC
     18       5    2   0.5573  6.020000e+01  5.475200e+01  5.980000e+01  0 0 0 # Hw
     19       5    2   0.5573  6.038500e+01  5.333800e+01  6.030800e+01  0 0 0 # Hw
     20       5    3  -1.1146  6.030600e+01  5.393000e+01  5.972800e+01  0 0 0 # M
     21       6    1   1.7162  3.858400e+01  5.344700e+01  5.080100e+01  0 0 0 # ODw DC
     22       6    2   0.5573  3.919000e+01  5.418800e+01  5.079400e+01  0 0 0 # Hw
     23       6    2   0.5573  3.774700e+01  5.382400e+01  5.106800e+01  0 0 0 # Hw
     24       6    3  -1.1146  3.853700e+01  5.367600e+01  5.085400e+01  0 0 0 # M
     25       7    1   1.7162  4.358300e+01  5.749600e+01  4.203600e+01  0 0 0 # ODw DC
     26       7    2   0.5573  4.406700e+01  5.783600e+01  4.128200e+01  0 0 0 # Hw
     27       7    2   0.5573  4.384800e+01  5.657900e+01  4.209700e+01  0 0 0 # Hw
     28       7    3  -1.1146  4.373700e+01  5.737800e+01  4.189400e+01  0 0 0 # M
     29       8    1   1.7162  4.774200e+01  3.790400e+01  5.858000e+01  0 0 0 # ODw DC
     30       8    2   0.5573  4.784200e+01  3.736600e+01  5.779500e+01  0 0 0 # Hw
     31       8    2   0.5573  4.799700e+01  3.878300e+01  5.830300e+01  0 0 0 # Hw
     32       8    3  -1.1146  4.781500e+01  3.797300e+01  5.836300e+01  0 0 0 # M
     33       9    1   1.7162  5.747600e+01  6.277500e+01  4.750700e+01  0 0 0 # ODw DC
     34       9    2   0.5573  5.802500e+01  6.228800e+01  4.689200e+01  0 0 0 # Hw
     35       9    2   0.5573  5.789900e+01  6.265100e+01  4.835600e+01  0 0 0 # Hw
     36       9    3  -1.1146  5.767500e+01  6.265000e+01  4.755500e+01  0 0 0 # M
     37      10    1   1.7162  5.455500e+01  5.013800e+01  3.865600e+01  0 0 0 # ODw DC
     38      10    2   0.5573  5.479700e+01  5.083600e+01  3.926600e+01  0 0 0 # Hw
     39      10    2   0.5573  5.538600e+01  4.985400e+01  3.827600e+01  0 0 0 # Hw
     40      10    3  -1.1146  5.477400e+01  5.022300e+01  3.870300e+01  0 0 0 # M
     41      11    1   1.7162  5.226500e+01  5.747800e+01  5.453000e+01  0 0 0 # ODw DC
     42      11    2   0.5573  5.186000e+01  5.833700e+01  5.441300e+01  0 0 0 # Hw
     43      11    2   0.5573  5.172200e+01  5.688500e+01  5.401200e+01  0 0 0 # Hw
     44      11    3  -1.1146  5.207100e+01  5.753300e+01  5.440000e+01  0 0 0 # M
     45      12    1   1.7162  5.901300e+01  5.016800e+01  5.914900e+01  0 0 0 # ODw DC
     46      12    2   0.5573  5.906100e+01  4.921300e+01  5.911800e+01  0 0 0 # Hw
     47      12    2   0.5573  5.809000e+01  5.035500e+01  5.932000e+01  0 0 0 # Hw
     48      12    3  -1.1146  5.883400e+01  5.001100e+01  5.917800e+01  0 0 0 # M
     49      13    1   1.7162  3.939700e+01  5.138700e+01  5.061000e+01  0 0 0 # ODw DC
     50      13    2   0.5573  3.993700e+01  5.185000e+01  4.996800e+01  0 0 0 # Hw
     51      13    2   0.5573  3.861500e+01  5.112900e+01  5.012300e+01  0 0 0 # Hw
     52      13    3  -1.1146  3.934800e+01  5.142900e+01  5.037900e+01  0 0 0 # M
     53      14    1   1.7162  4.493700e+01  5.054700e+01  3.627100e+01  0 0 0 # ODw DC
     54      14    2   0.5573  4.486700e+01  4.966400e+01  3.590900e+01  0 0 0 # Hw
     55      14    2   0.5573  4.404000e+01  5.088100e+01  3.626200e+01  0 0 0 # Hw
     56      14    3  -1.1146  4.473900e+01  5.043500e+01  3.619500e+01  0 0 0 # M
     57      15    1   1.7162  4.949500e+01  5.669500e+01  4.360000e+01  0 0 0 # ODw DC
     58      15    2   0.5573  5.037800e+01  5.685000e+01  4.326400e+01  0 0 0 # Hw
     59      15    2   0.5573  4.921000e+01  5.589400e+01  4.316100e+01  0 0 0 # Hw
     60      15    3  -1.1146  4.961700e+01  5.656300e+01  4.344100e+01  0 0 0 # M
     61      16    1   1.7162  4.834800e+01  5.896700e+01  5.800300e+01  0 0 0 # ODw DC
     62      16    2   0.5573  4.761300e+01  5.841400e+01  5.826600e+01  0 0 0 # Hw
     63      16    2   0.5573  4.793900e+01  5.972600e+01  5.758700e+01  0 0 0 # Hw
     64      16    3  -1.1146  4.811400e+01  5.900900e+01  5.797100e+01  0 0 0 # M
     65      17    1   1.7162  5.571200e+01  6.156000e+01  4.317300e+01  0 0 0 # ODw DC
     66      17    2   0.5573  5.643400e+01  6.197800e+01  4.364400e+01  0 0 0 # Hw
     67      17    2   0.5573  5.572900e+01  6.065100e+01  4.346800e+01  0 0 0 # Hw
     68      17    3  -1.1146  5.586400e+01  6.146000e+01  4.333000e+01  0 0 0 # M
     69      18    1   1.7162  4.686700e+01  4.969700e+01  4.118800e+01  0 0 0 # ODw DC
     70      18    2   0.5573  4.752700e+01  5.004100e+01  4.058500e+01  0 0 0 # Hw
     71      18    2   0.5573  4.737300e+01  4.928600e+01  4.188800e+01  0 0 0 # Hw
     72      18    3  -1.1146  4.710600e+01  4.968300e+01  4.120700e+01  0 0 0 # M
     73      19    1   1.7162  3.991800e+01  4.358700e+01  5.267500e+01  0 0 0 # ODw DC
     74      19    2   0.5573  4.055100e+01  4.394100e+01  5.205000e+01  0 0 0 # Hw
     75      19    2   0.5573  4.002800e+01  4.412700e+01  5.345800e+01  0 0 0 # Hw
     76      19    3  -1.1146  4.007100e+01  4.377000e+01  5.270800e+01  0 0 0 # M
     77      20    1   1.7162  3.594800e+01  4.631400e+01  4.670400e+01  0 0 0 # ODw DC
     78      20    2   0.5573  3.601300e+01  4.658800e+01  4.578900e+01  0 0 0 # Hw
     79      20    2   0.5573  3.682600e+01  4.600300e+01  4.692300e+01  0 0 0 # Hw
     80      20    3  -1.1146  3.614100e+01  4.630600e+01  4.656100e+01  0 0 0 # M
     81      21    1   1.7162  4.931300e+01  4.326600e+01  6.106600e+01  0 0 0 # ODw DC
     82      21    2   0.5573  4.941600e+01  4.419700e+01  6.126600e+01  0 0 0 # Hw
     83      21    2   0.5573  4.836700e+01  4.313800e+01  6.100200e+01  0 0 0 # Hw
     84      21    3  -1.1146  4.914000e+01  4.343100e+01  6.109400e+01  0 0 0 # M
     85      22    1   1.7162  4.107500e+01  4.976200e+01  5.605700e+01  0 0 0 # ODw DC
     86      22    2   0.5573  4.183700e+01  4.964800e+01  5.548900e+01  0 0 0 # Hw
     87      22    2   0.5573  4.144300e+01  4.998900e+01  5.691000e+01  0 0 0 # Hw
     88      22    3  -1.1146  4.130600e+01  4.978500e+01  5.611500e+01  0 0 0 # M
     89      23    1   1.7162  5.907200e+01  5.991000e+01  5.466900e+01  0 0 0 # ODw DC
     90      23    2   0.5573  5.956800e+01  6.019300e+01  5.543800e+01  0 0 0 # Hw
     91      23    2   0.5573  5.821400e+01  5.966700e+01  5.501300e+01  0 0 0 # Hw
     92      23    3  -1.1146  5.899800e+01  5.991800e+01  5.489700e+01  0 0 0 # M
     93      24    1   1.7162  5.847400e+01  3.877100e+01  5.522100e+01  0 0 0 # ODw DC
     94      24    2   0.5573  5.837400e+01  3.923400e+01  5.439000e+01  0 0 0 # Hw
     95      24    2   0.5573  5.888900e+01  3.940700e+01  5.580200e+01  0 0 0 # Hw
     96      24    3  -1.1146  5.853800e+01  3.899600e+01  5.517000e+01  0 0 0 # M
     97      25    1   1.7162  5.317800e+01  5.953500e+01  5.624000e+01  0 0 0 # ODw DC
     98      25    2   0.5573  5.234700e+01  6.000800e+01  5.629800e+01  0 0 0 # Hw
     99      25    2   0.5573  5.293300e+01  5.861300e+01  5.631000e+01  0 0 0 # Hw
    100      25    3  -1.1146  5.295700e+01  5.944300e+01  5.626600e+01  0 0 0 # M
    101      26    1   1.7162  4.526600e+01  5.594900e+01  5.279900e+01  0 0 0 # ODw DC
    102      26    2   0.5573  4.452300e+01  5.581300e+01  5.338600e+01  0 0 0 # Hw
    103      26    2   0.5573  4.487300e+01  5.603600e+01  5.193100e+01  0 0 0 # Hw
    104      26    3  -1.1146  4.503400e+01  5.593900e+01  5.274200e+01  0 0 0 # M
    105      27    1   1.7162  5.709000e+01  5.103800e+01  5.715000e+01  0 0 0 # ODw DC
    106      27    2   0.5573  5.666800e+01  5.017800e+01  5.712700e+01  0 0 0 # Hw
    107      27    2   0.5573  5.802600e+01  5.084400e+01  5.717700e+01  0 0 0 # Hw
    108      27    3  -1.1146  5.719500e+01  5.082200e+01  5.715100e+01  0 0 0 # M
    109      28    1   1.7162  4.307100e+01  6.330800e+01  4.995100e+01  0 0 0 # ODw DC
    110      28    2   0.5573  4.384600e+01  6.312400e+01  4.942000e+01  0 0 0 # Hw
    111      28    2   0.5573  4.331300e+01  6.302700e+01  5.083300e+01  0 0 0 # Hw
    112      28    3  -1.1146  4.327900e+01  6.321300e+01  5.002300e+01  0 0 0 # M
    113      29    1   1.7162  5.563200e+01  4.588500e+01  6.044600e+01  0 0 0 # ODw DC
    114      29    2   0.5573  5.549700e+01  4.667000e+01  5.991500e+01  0 0 0 # Hw
    115      29    2   0.5573  5.649800e+01  4.556900e+01  6.019000e+01  0 0 0 # Hw
    116      29    3  -1.1146  5.578200e+01  4.598100e+01  6.028500e+01  0 0 0 # M
    117      30    1   1.7162  4.530400e+01  5.607200e+01  6.244200e+01  0 0 0 # ODw DC
    118      30    2   0.5573  4.601400e+01  5.647200e+01  6.294400e+01  0 0 0 # Hw
    119      30    2   0.5573  4.561400e+01  5.608500e+01  6.153700e+01  0 0 0 # Hw
    120      30    3  -1.1146  4.551300e+01  5.615700e+01  6.236000e+01  0 0 0 # M
    121      31    1   1.7162  6.019100e+01  5.046400e+01  4.333800e+01  0 0 0 # ODw DC
    122      31    2   0.5573  5.923900e+01  5.055900e+01  4.335400e+01  0 0 0 # Hw
    123      31    2   0.5573  6.033900e+01  4.952100e+01  4.338900e+01  0 0 0 # Hw
    124      31    3  -1.1146  6.002600e+01  5.029100e+01  4.335200e+01  0 0 0 # M
    125      32    1   1.7162  5.637700e+01  4.443100e+01  3.760700e+01  0 0 0 # ODw DC
    126      32    2   0.5573  5.644400e+01  4.538600e+01  3.760100e+01  0 0 0 # Hw
    127      32    2   0.5573  5.549700e+01  4.425000e+01  3.728000e+01  0 0 0 # Hw
    128      32    3  -1.1146  5.621100e+01  4.459000e+01  3.753900e+01  0 0 0 # M
    129      33    1   1.7162  4.689400e+01  5.195900e+01  3.550100e+01  0 0 0 # ODw DC
    130      33    2   0.5573  4.734300e+01  5.280500e+01  3.549400e+01  0 0 0 # Hw
    131      33    2   0.5573  4.759100e+01  5.131900e+01  3.564300e+01  0 0 0 # Hw
    132      33    3  -1.1146  4.712900e+01  5.200100e+01  3.552800e+01  0 0 0 # M
    133      34    1   1.7162  4.624700e+01  4.134000e+01  4.201500e+01  0 0 0 # ODw DC
    134      34    2   0.5573  4.699700e+01  4.126700e+01  4.142500e+01  0 0 0 # Hw
    135      34    2   0.5573  4.556500e+01  4.081100e+01  4.160200e+01  0 0 0 # Hw
    136      34    3  -1.1146  4.626100e+01  4.121700e+01  4.180900e+01  0 0 0 # M
    137      35    1   1.7162  5.198400e+01  4.846800e+01  4.186400e+01  0 0 0 # ODw DC
    138      35    2   0.5573  5.167300e+01  4.936600e+01  4.174200e+01  0 0 0 # Hw
    139      35    2   0.5573  5.293600e+01  4.853300e+01  4.178700e+01  0 0 0 # Hw
    140      35    3  -1.1146  5.211500e+01  4.866500e+01  4.182300e+01  0 0 0 # M
    141      36    1   1.7162  5.173900e+01  4.251200e+01  4.583800e+01  0 0 0 # ODw DC
    142      36    2   0.5573  5.233500e+01  4.231200e+01  4.656000e+01  0 0 0 # Hw
    143      36    2   0.5573  5.227200e+01  4.300900e+01  4.521900e+01  0 0 0 # Hw
    144      36    3  -1.1146  5.197000e+01  4.257300e+01  4.585900e+01  0 0 0 # M
    145      37    1   1.7162  5.921400e+01  5.191200e+01  4.811900e+01  0 0 0 # ODw DC
    146      37    2   0.5573  5.909600e+01  5.096400e+01  4.806600e+01  0 0 0 # Hw
    147      37    2   0.5573  5.833000e+01  5.225600e+01  4.824500e+01  0 0 0 # Hw
    148      37    3  -1.1146  5.900900e+01  5.178800e+01  4.813400e+01  0 0 0 # M
    149      38    1   1.7162  5.209800e+01  5.052000e+01  5.555400e+01  0 0 0 # ODw DC
    150      38    2   0.5573  5.187500e+01  4.976700e+01  5.610100e+01  0 0 0 # Hw
    151      38    2   0.5573  5.294400e+01  5.029200e+01  5.516800e+01  0 0 0 # Hw
    152      38    3  -1.1146  5.222600e+01  5.031900e+01  5.558700e+01  0 0 0 # M
    153      39    1   1.7162  5.706300e+01  4.753800e+01  3.914200e+01  0 0 0 # ODw DC
    154      39    2   0.5573  5.663300e+01  4.837500e+01  3.932200e+01  0 0 0 # Hw
    155      39    2   0.5573  5.737300e+01  4.724100e+01  3.999700e+01  0 0 0 # Hw
    156      39    3  -1.1146  5.703900e+01  4.764900e+01  3.935400e+01  0 0 0 # M
    157      40    1   1.7162  5.896300e+01  5.617000e+01  4.894300e+01  0 0 0 # ODw DC
    158      40    2   0.5573  5.867200e+01  5.707700e+01  4.884900e+01  0 0 0 # Hw
    159      40    2   0.5573  5.824500e+01  5.573500e+01  4.940200e+01  0 0 0 # Hw
    160      40    3  -1.1146  5.875600e+01  5.626700e+01  4.901800e+01  0 0 0 # M
    161      41    1   1.7162  4.983000e+01  3.859200e+01  5.005800e+01  0 0 0 # ODw DC
    162      41    2   0.5573  5.028900e+01  3.804100e+01  5.069300e+01  0 0 0 # Hw
    163      41    2   0.5573  4.893700e+01  3.825000e+01  5.004700e+01  0 0 0 # Hw
    164      41    3  -1.1146  4.974100e+01  3.840900e+01  5.018600e+01  0 0 0 # M
    165      42    1   1.7162  3.560800e+01  5.170500e+01  4.968000e+01  0 0 0 # ODw DC
    166      42    2   0.5573  3.567000e+01  5.204700e+01  4.878900e+01  0 0 0 # Hw
    167      42    2   0.5573  3.648700e+01  5.181400e+01  5.004100e+01  0 0 0 # Hw
    168      42    3  -1.1146  3.580000e+01  5.179700e+01  4.957100e+01  0 0 0 # M
    169      43    1   1.7162  5.866500e+01  5.368800e+01  5.733900e+01  0 0 0 # ODw DC
    170      43    2   0.5573  5.862000e+01  5.420200e+01  5.814500e+01  0 0 0 # Hw
    171      43    2   0.5573  5.798100e+01  5.302700e+01  5.743700e+01  0 0 0 # Hw
    172      43    3  -1.1146  5.851600e+01  5.365800e+01  5.752400e+01  0 0 0 # M
    173      44    1   1.7162  4.360900e+01  5.612400e+01  5.955600e+01  0 0 0 # ODw DC
    174      44    2   0.5573  4.425200e+01  5.548600e+01  5.924700e+01  0 0 0 # Hw
    175      44    2   0.5573  4.412100e+01  5.675200e+01  6.006500e+01  0 0 0 # Hw
    176      44    3  -1.1146  4.384600e+01  5.612200e+01  5.959700e+01  0 0 0 # M
    177      45    1   1.7162  4.630800e+01  5.268800e+01  6.379400e+01  0 0 0 # ODw DC
    178      45    2   0.5573  4.555100e+01  5.325200e+01  6.395300e+01  0 0 0 # Hw
    179      45    2   0.5573  4.698300e+01  5.302200e+01  6.438400e+01  0 0 0 # Hw
    180      45    3  -1.1146  4.629100e+01  5.287200e+01  6.394800e+01  0 0 0 # M
    181      46    1   1.7162  5.971900e+01  4.688400e+01  4.977200e+01  0 0 0 # ODw DC
    182      46    2   0.5573  6.052700e+01  4.734800e+01  4.999300e+01  0 0 0 # Hw
    183      46    2   0.5573  5.907800e+01  4.720600e+01  5.040500e+01  0 0 0 # Hw
    184      46    3  -1.1146  5.975300e+01  4.704500e+01  4.994700e+01  0 0 0 # M
    185      47    1   1.7162  4.121200e+01  6.114900e+01  5.479600e+01  0 0 0 # ODw DC
    186      47    2   0.5573  4.106800e+01  6.066600e+01  5.561000e+01  0 0 0 # Hw
    187      47    2   0.5573  4.140300e+01  6.047400e+01  5.414700e+01  0 0 0 # Hw
    188      47    3  -1.1146  4.122200e+01  6.091200e+01  5.483000e+01  0 0 0 # M
    189      48    1   1.7162  5.654000e+01  5.693800e+01  4.834300e+01  0 0 0 # ODw DC
    190      48    2   0.5573  5.609100e+01  5.619000e+01  4.873800e+01  0 0 0 # Hw
    191      48    2   0.5573  5.599400e+01  5.717600e+01  4.759400e+01  0 0 0 # Hw
    192      48    3  -1.1146  5.633600e+01  5.683300e+01  4.827000e+01  0 0 0 # M
    193      49    1   1.7162  4.024100e+01  4.611900e+01  5.255000e+01  0 0 0 # ODw DC
    194      49    2   0.5573  3.955600e+01  4.678400e+01  5.262600e+01  0 0 0 # Hw
    195      49    2   0.5573  4.105400e+01  4.661900e+01  5.248400e+01  0 0 0 # Hw
    196      49    3  -1.1146  4.026700e+01  4.635800e+01  5.255200e+01  0 0 0 # M
    197      50    1   1.7162  4.260600e+01  5.538000e+01  4.491400e+01  0 0 0 # ODw DC
    198      50    2   0.5573  4.256200e+01  5.487500e+01  4.410200e+01  0 0 0 # Hw
    199      50    2   0.5573  4.232400e+01  5.626000e+01  4.466300e+01  0 0 0 # Hw
    200      50    3  -1.1146  4.253900e+01  5.545700e+01  4.469600e+01  0 0 0 # M
    201      51    1   1.7162  4.308900e+01  4.253100e+01  4.136500e+01  0 0 0 # ODw DC
    202      51    2   0.5573  4.323900e+01  4.347500e+01  4.142500e+01  0 0 0 # Hw
    203      51    2   0.5573  4.381300e+01  4.214200e+01  4.185400e+01  0 0 0 # Hw
    204      51    3  -1.1146  4.326800e+01  4.264500e+01  4.147700e+01  0 0 0 # M
    205      52    1   1.7162  4.472400e+01  5.483400e+01  5.542200e+01  0 0 0 # ODw DC
    206      52    2   0.5573  4.532600e+01  5.409900e+01  5.529800e+01  0 0 0 # Hw
    207      52    2   0.5573  4.386200e+01  5.447300e+01  5.522100e+01  0 0 0 # Hw
    208      52    3  -1.1146  4.467100e+01  5.460900e+01  5.535500e+01  0 0 0 # M
    209      53    1   1.7162  4.938600e+01  5.173200e+01  5.500100e+01  0 0 0 # ODw DC
    210      53    2   0.5573  5.030300e+01  5.193700e+01  5.518900e+01  0 0 0 # Hw
    211      53    2   0.5573  4.898700e+01  5.161100e+01  5.586200e+01  0 0 0 # Hw
    212      53    3  -1.1146  4.949200e+01  5.174900e+01  5.521600e+01  0 0 0 # M
    213      54    1   1.7162  3.680400e+01  4.936500e+01  5.141400e+01  0 0 0 # ODw DC
    214      54    2   0.5573  3.770800e+01  4.967000e+01  5.149300e+01  0 0 0 # Hw
    215      54    2   0.5573  3.688000e+01  4.841800e+01  5.130300e+01  0 0 0 # Hw
    216      54    3  -1.1146  3.700400e+01  4.923400e+01  5.140700e+01  0 0 0 # M
    217      55    1   1.7162  4.166300e+01  5.818700e+01  4.117600e+01  0 0 0 # ODw DC
    218      55    2   0.5573  4.073600e+01  5.805500e+01  4.137700e+01  0 0 0 # Hw
    219      55    2   0.5573  4.181500e+01  5.911600e+01  4.134400e+01  0 0 0 # Hw
    220      55    3  -1.1146  4.150400e+01  5.835000e+01  4.125100e+01  0 0 0 # M
    221      56    1   1.7162  3.698200e+01  4.374900e+01  5.401600e+01  0 0 0 # ODw DC
    222      56    2   0.5573  3.657800e+01  4.461700e+01  5.399500e+01  0 0 0 # Hw
    223      56    2   0.5573  3.792200e+01  4.392400e+01  5.405900e+01  0 0 0 # Hw
    224      56    3  -1.1146  3.709200e+01  4.396300e+01  5.402000e+01  0 0 0 # M
    225      57    1   1.7162  6.415400e+01  5.087300e+01  4.819500e+01  0 0 0 # ODw DC
    226      57    2   0.5573  6.359800e+01  5.147900e+01  4.770700e+01  0 0 0 # Hw
    227      57    2   0.5573  6.486400e+01  5.141800e+01  4.853300e+01  0 0 0 # Hw
    228      57    3  -1.1146  6.418600e+01  5.110800e+01  4.816400e+01  0 0 0 # M
    229      58    1   1.7162  5.609700e+01  4.917400e+01  5.260500e+01  0 0 0 # ODw DC
    230      58    2   0.5573  5.583100e+01  4.825600e+01  5.265000e+01  0 0 0 # Hw
    231      58    2   0.5573  5.688900e+01  4.922000e+01  5.313900e+01  0 0 0 # Hw
    232      58    3  -1.1146  5.620400e+01  4.899500e+01  5.272400e+01  0 0 0 # M
    233      59    1   1.7162  4.618500e+01  4.518400e+01  4.681700e+01  0 0 0 # ODw DC
    234      59    2   0.5573  4.618200e+01  4.422700e+01  4.685100e+01  0 0 0 # Hw
    235      59    2   0.5573  4.711100e+01  4.542200e+01  4.685200e+01  0 0 0 # Hw
    236      59    3  -1.1146  4.637400e+01  4.503700e+01  4.683200e+01  0 0 0 # M
    237      60    1   1.7162  4.961200e+01  5.422400e+01  3.937900e+01  0 0 0 # ODw DC
    238      60    2   0.5573  4.900000e+01  5.361200e+01  3.896900e+01  0 0 0 # Hw
    239      60    2   0.5573  5.047400e+01  5.393900e+01  3.907600e+01  0 0 0 # Hw
    240      60    3  -1.1146  4.966300e+01  5.404000e+01  3.923300e+01  0 0 0 # M
    241      61    1   1.7162  4.338300e+01  4.010200e+01  4.904600e+01  0 0 0 # ODw DC
    242      61    2   0.5573  4.251500e+01  3.997900e+01  4.943000e+01  0 0 0 # Hw
    243      61    2   0.5573  4.330600e+01  4.090600e+01  4.853400e+01  0 0 0 # Hw
    244      61    3  -1.1146  4.318900e+01  4.024100e+01  4.902000e+01  0 0 0 # M
    245      62    1   1.7162  4.109300e+01  4.539100e+01  5.669200e+01  0 0 0 # ODw DC
    246      62    2   0.5573  4.153000e+01  4.478100e+01  5.728600e+01  0 0 0 # Hw
    247      62    2   0.5573  4.027600e+01  4.495200e+01  5.645600e+01  0 0 0 # Hw
    248      62    3  -1.1146  4.101600e+01  4.517600e+01  5.676500e+01  0 0 0 # M
    249      63    1   1.7162  4.545200e+01  4.431000e+01  5.131000e+01  0 0 0 # ODw DC
    250      63    2   0.5573  4.638300e+01  4.417000e+01  5.113700e+01  0 0 0 # Hw
    251      63    2   0.5573  4.543400e+01  4.496200e+01  5.201100e+01  0 0 0 # Hw
    252      63    3  -1.1146  4.563900e+01  4.441500e+01  5.141800e+01  0 0 0 # M
    253      64    1   1.7162  4.241900e+01  3.813700e+01  5.062800e+01  0 0 0 # ODw DC
    254      64    2   0.5573  4.213200e+01  3.723600e+01  5.047300e+01  0 0 0 # Hw
    255      64    2   0.5573  4.333100e+01  3.815000e+01  5.033900e+01  0 0 0 # Hw
    256      64    3  -1.1146  4.254700e+01  3.795500e+01  5.053700e+01  0 0 0 # M
    257      65    1   1.7162  4.342500e+01  3.795800e+01  5.492600e+01  0 0 0 # ODw DC
    258      65    2   0.5573  4.342000e+01  3.722700e+01  5.430700e+01  0 0 0 # Hw
    259      65    2   0.5573  4.429800e+01  3.793600e+01  5.531500e+01  0 0 0 # Hw
    260      65    3  -1.1146  4.360200e+01  3.780300e+01  5.487900e+01  0 0 0 # M
    261      66    1   1.7162  4.864100e+01  5.575600e+01  4.932700e+01  0 0 0 # ODw DC
    262      66    2   0.5573  4.846100e+01  5.640600e+01  5.000700e+01  0 0 0 # Hw
    263      66    2   0.5573  4.890700e+01  5.627300e+01  4.856700e+01  0 0 0 # Hw
    264      66    3  -1.1146  4.865800e+01  5.599500e+01  4.931100e+01  0 0 0 # M
    265      67    1   1.7162  5.742600e+01  5.851200e+01  4.996000e+01  0 0 0 # ODw DC
    266      67    2   0.5573  5.739400e+01  5.862100e+01  5.091100e+01  0 0 0 # Hw
    267      67    2   0.5573  5.701600e+01  5.930400e+01  4.961500e+01  0 0 0 # Hw
    268      67    3  -1.1146  5.733500e+01  5.869600e+01  5.008400e+01  0 0 0 # M
    269      68    1   1.7162  5.133600e+01  6.440900e+01  4.810500e+01  0 0 0 # ODw DC
    270      68    2   0.5573  5.123900e+01  6.372100e+01  4.876400e+01  0 0 0 # Hw
    271      68    2   0.5573  5.079800e+01  6.411500e+01  4.737100e+01  0 0 0 # Hw
    272      68    3  -1.1146  5.120600e+01  6.420800e+01  4.809000e+01  0 0 0 # M
    273      69    1   1.7162  6.238800e+01  4.445500e+01  5.613700e+01  0 0 0 # ODw DC
    274      69    2   0.5573  6.149900e+01  4.432700e+01  5.580500e+01  0 0 0 # Hw
    275      69    2   0.5573  6.226800e+01  4.488700e+01  5.698200e+01  0 0 0 # Hw
    276      69    3  -1.1146  6.218100e+01  4.451800e+01  5.624200e+01  0 0 0 # M
    277      70    1   1.7162  4.174400e+01  4.412400e+01  4.398600e+01  0 0 0 # ODw DC
    278      70    2   0.5573  4.225900e+01  4.491800e+01  4.413600e+01  0 0 0 # Hw
    279      70    2   0.5573  4.239500e+01  4.345000e+01  4.379600e+01  0 0 0 # Hw
    280      70    3  -1.1146  4.198300e+01  4.414900e+01  4.397800e+01  0 0 0 # M
    281      71    1   1.7162  4.232000e+01  4.814100e+01  4.274500e+01  0 0 0 # ODw DC
    282      71    2   0.5573  4.271400e+01  4.726900e+01  4.270600e+01  0 0 0 # Hw
    283      71    2   0.5573  4.306500e+01  4.874000e+01  4.276700e+01  0 0 0 # Hw
    284      71    3  -1.1146  4.255300e+01  4.808500e+01  4.274200e+01  0 0 0 # M
    285      72    1   1.7162  5.155400e+01  3.788600e+01  4.888200e+01  0 0 0 # ODw DC
    286      72    2   0.5573  5.134100e+01  3.697500e+01  4.908200e+01  0 0 0 # Hw
    287      72    2   0.5573  5.100000e+01  3.810300e+01  4.813300e+01  0 0 0 # Hw
    288      72    3  -1.1146  5.139700e+01  3.774400e+01  4.877000e+01  0 0 0 # M
    289      73    1   1.7162  4.972900e+01  4.373400e+01  4.867400e+01  0 0 0 # ODw DC
    290      73    2   0.5573  4.962600e+01  4.459600e+01  4.827000e+01  0 0 0 # Hw
    291      73    2   0.5573  4.893900e+01  4.362200e+01  4.920300e+01  0 0 0 # Hw
    292      73    3  -1.1146  4.954600e+01  4.388800e+01  4.869900e+01  0 0 0 # M
    293      74    1   1.7162  4.071000e+01  4.088400e+01  5.675200e+01  0 0 0 # ODw DC
    294      74    2   0.5573  4.163400e+01  4.109100e+01  5.661100e+01  0 0 0 # Hw
    295      74    2   0.5573  4.025900e+01  4.172200e+01  5.665600e+01  0 0 0 # Hw
    296      74    3  -1.1146  4.080700e+01  4.109800e+01  5.670400e+01  0 0 0 # M
    297      75    1   1.7162  5.575600e+01  4.407100e+01  5.370400e+01  0 0 0 # ODw DC
    298      75    2   0.5573  5.537400e+01  4.350400e+01  5.437500e+01  0 0 0 # Hw
    299      75    2   0.5573  5.521500e+01  4.392200e+01  5.292900e+01  0 0 0 # Hw
    300      75    3  -1.1146  5.556700e+01  4.392400e+01  5.368300e+01  0 0 0 # M
    301      76    1   1.7162  5.146200e+01  5.257000e+01  5.130900e+01  0 0 0 # ODw DC
    302      76    2   0.5573  5.227800e+01  5.278000e+01  5.085700e+01  0 0 0 # Hw
    303      76    2   0.5573  5.111800e+01  5.341700e+01  5.159000e+01  0 0 0 # Hw
    304      76    3  -1.1146  5.155900e+01  5.278600e+01  5.127400e+01  0 0 0 # M
    305      77    1   1.7162  4.147700e+01  5.558400e+01  4.232600e+01  0 0 0 # ODw DC
    306      77    2   0.5573  4.057800e+01  5.548000e+01  4.263900e+01  0 0 0 # Hw
    307      77    2   0.5573  4.171000e+01  5.648100e+01  4.256400e+01  0 0 0 # Hw
    308      77    3  -1.1146  4.134000e+01  5.574600e+01  4.243900e+01  0 0 0 # M
    309      78    1   1.7162  4.677000e+01  5.203400e+01  4.578400e+01  0 0 0 # ODw DC
    310      78    2   0.5573  4.688300e+01  5.117200e+01  4.538300e+01  0 0 0 # Hw
    311      78    2   0.5573  4.760300e+01  5.220500e+01  4.622300e+01  0 0 0 # Hw
    312      78    3  -1.1146  4.696400e+01  5.189200e+01  4.579200e+01  0 0 0 # M
    313      79    1   1.7162  5.292700e+01  4.239900e+01  4.932600e+01  0 0 0 # ODw DC
    314      79    2   0.5573  5.244400e+01  4.314400e+01  4.896800e+01  0 0 0 # Hw
    315      79    2   0.5573  5.305400e+01  4.181500e+01  4.857900e+01  0 0 0 # Hw
    316      79    3  -1.1146  5.285400e+01  4.243200e+01  4.910000e+01  0 0 0 # M
    317      80    1   1.7162  5.087500e+01  4.556700e+01  4.366200e+01  0 0 0 # ODw DC
    318      80    2   0.5573  5.136800e+01  4.475000e+01  4.373400e+01  0 0 0 # Hw
    319      80    2   0.5573  5.153800e+01  4.623300e+01  4.348600e+01  0 0 0 # Hw
    320      80    3  -1.1146  5.111200e+01  4.553600e+01  4.364100e+01  0 0 0 # M
    321      81    1   1.7162  6.049800e+01  5.254400e+01  5.774700e+01  0 0 0 # ODw DC
    322      81    2   0.5573  5.980900e+01  5.190000e+01  5.791300e+01  0 0 0 # Hw
    323      81    2   0.5573  6.114500e+01  5.207200e+01  5.722300e+01  0 0 0 # Hw
    324      81    3  -1.1146  6.048900e+01  5.231600e+01  5.767400e+01  0 0 0 # M
    325      82    1   1.7162  5.914800e+01  4.169700e+01  5.826400e+01  0 0 0 # ODw DC
    326      82    2   0.5573  5.847500e+01  4.133600e+01  5.884000e+01  0 0 0 # Hw
    327      82    2   0.5573  5.925400e+01  4.103900e+01  5.757700e+01  0 0 0 # Hw
    328      82    3  -1.1146  5.903200e+01  4.148800e+01  5.824100e+01  0 0 0 # M
    329      83    1   1.7162  4.470700e+01  6.352000e+01  5.378400e+01  0 0 0 # ODw DC
    330      83    2   0.5573  4.423200e+01  6.269000e+01  5.374900e+01  0 0 0 # Hw
    331      83    2   0.5573  4.562900e+01  6.326700e+01  5.381700e+01  0 0 0 # Hw
    332      83    3  -1.1146  4.479800e+01  6.329800e+01  5.378400e+01  0 0 0 # M
    333      84    1   1.7162  5.481500e+01  4.833100e+01  4.319200e+01  0 0 0 # ODw DC
    334      84    2   0.5573  5.547500e+01  4.902300e+01  4.324000e+01  0 0 0 # Hw
    335      84    2   0.5573  5.531700e+01  4.751800e+01  4.324600e+01  0 0 0 # Hw
    336      84    3  -1.1146  5.505300e+01  4.830600e+01  4.321300e+01  0 0 0 # M
    337      85    1   1.7162  6.026000e+01  4.369500e+01  4.663300e+01  0 0 0 # ODw DC
    338      85    2   0.5573  5.945300e+01  4.420900e+01  4.660300e+01  0 0 0 # Hw
    339      85    2   0.5573  5.996400e+01  4.278600e+01  4.666200e+01  0 0 0 # Hw
    340      85    3  -1.1146  6.003400e+01  4.361500e+01  4.663300e+01  0 0 0 # M
    341      86    1   1.7162  4.735100e+01  5.155000e+01  4.249200e+01  0 0 0 # ODw DC
    342      86    2   0.5573  4.825200e+01  5.124100e+01  4.239900e+01  0 0 0 # Hw
    343      86    2   0.5573  4.698400e+01  5.101300e+01  4.319300e+01  0 0 0 # Hw
    344      86    3  -1.1146  4.746000e+01  5.137700e+01  4.261600e+01  0 0 0 # M
    345      87    1   1.7162  4.667300e+01  4.033200e+01  6.097500e+01  0 0 0 # ODw DC
    346      87    2   0.5573  4.739200e+01  4.085200e+01  6.061600e+01  0 0 0 # Hw
    347      87    2   0.5573  4.599300e+01  4.097300e+01  6.118000e+01  0 0 0 # Hw