LAMMPS data file. msi2lmp v3.9.9 / 05 Nov 2018 / CGCMM for jiachunbox

3192 atoms
2793 bonds
2793 angles
1197 dihedrals
0 impropers
6 atom types
5 bond types
3 angle types
1 dihedral types
-0.763248 39.236752 xlo xhi
0.317024 40.317024 ylo yhi
0.608068 40.608068 zlo zhi

Masses

   1   11.611  # CTO DC
   2   15.599  # OH DC
   3    1.008  # h
   4    1.008  # ho
   5    0.400  # CTO DP
   6    0.400  # OH DP

Bond Coeffs

   1   340.6175     1.1050 # CTO-h
   2   384.0000     1.4200 # CTO-OH
   3   540.6336     0.9600 # OH-ho
   4   500.000000     0.000000  # CTO DC-DP
   5   500.000000     0.000000  # OH DC-DP

Angle Coeffs

   1    57.0000   109.5000 # OH-CTO-h
   2    39.5000   106.4000 # h-CTO-h
   3    58.5000   106.0000 # CTO-OH-ho

Dihedral Coeffs

  1     0.1300   1   3 # h-CTO-OH-ho

Atoms

      1       1    1   1.4654  3.709000e+00  2.420700e+01  3.004100e+01  0 0 0 # CTO DC
      2       1    2   1.3795  2.537000e+00  2.469100e+01  2.922100e+01  0 0 0 # OH DC
      3       1    3   0.1000  3.742000e+00  2.477200e+01  3.102900e+01  0 0 0 # h
      4       1    3   0.1000  4.677000e+00  2.439100e+01  2.946500e+01  0 0 0 # h
      5       1    3   0.1000  3.596000e+00  2.309100e+01  3.024500e+01  0 0 0 # h
      6       1    4   0.3500  1.595000e+00  2.451100e+01  2.978200e+01  0 0 0 # ho
      7       2    1   1.4654  3.460000e+01  2.384700e+01  2.966300e+01  0 0 0 # CTO DC
      8       2    2   1.3795  3.435800e+01  2.475300e+01  2.847900e+01  0 0 0 # OH DC
      9       2    3   0.1000  3.476400e+01  2.447900e+01  3.059800e+01  0 0 0 # h
     10       2    3   0.1000  3.552500e+01  2.320900e+01  2.946900e+01  0 0 0 # h
     11       2    3   0.1000  3.369600e+01  2.317000e+01  2.981500e+01  0 0 0 # h
     12       2    4   0.3500  3.345700e+01  2.537500e+01  2.866800e+01  0 0 0 # ho
     13       3    1   1.4654  2.314000e+01  2.114000e+00  9.484000e+00  0 0 0 # CTO DC
     14       3    2   1.3795  2.183500e+01  1.430000e+00  9.157000e+00  0 0 0 # OH DC
     15       3    3   0.1000  2.400700e+01  1.415000e+00  9.244000e+00  0 0 0 # h
     16       3    3   0.1000  2.316300e+01  2.380000e+00  1.059300e+01  0 0 0 # h
     17       3    3   0.1000  2.323700e+01  3.066000e+00  8.863000e+00  0 0 0 # h
     18       3    4   0.3500  2.181400e+01  1.172000e+00  8.077000e+00  0 0 0 # ho
     19       4    1   1.4654  2.893000e+00  1.920600e+01  2.790000e+00  0 0 0 # CTO DC
     20       4    2   1.3795  2.563000e+00  1.815600e+01  1.757000e+00  0 0 0 # OH DC
     21       4    3   0.1000  2.798000e+00  1.875700e+01  3.833000e+00  0 0 0 # h
     22       4    3   0.1000  2.170000e+00  2.008200e+01  2.686000e+00  0 0 0 # h
     23       4    3   0.1000  3.961000e+00  1.957400e+01  2.631000e+00  0 0 0 # h
     24       4    4   0.3500  3.267000e+00  1.730300e+01  1.859000e+00  0 0 0 # ho
     25       5    1   1.4654  1.885500e+01  1.330500e+01  3.132600e+01  0 0 0 # CTO DC
     26       5    2   1.3795  2.021900e+01  1.367300e+01  3.185600e+01  0 0 0 # OH DC
     27       5    3   0.1000  1.837500e+01  1.253300e+01  3.201500e+01  0 0 0 # h
     28       5    3   0.1000  1.896000e+01  1.286500e+01  3.027900e+01  0 0 0 # h
     29       5    3   0.1000  1.819800e+01  1.423600e+01  3.128300e+01  0 0 0 # h
     30       5    4   0.3500  2.011600e+01  1.410100e+01  3.287600e+01  0 0 0 # ho
     31       6    1   1.4654  3.274600e+01  3.916400e+01  3.121200e+01  0 0 0 # CTO DC
     32       6    2   1.3795  3.412200e+01  3.948600e+01  3.174400e+01  0 0 0 # OH DC
     33       6    3   0.1000  3.250900e+01  3.806700e+01  3.141100e+01  0 0 0 # h
     34       6    3   0.1000  3.271700e+01  3.936100e+01  3.008900e+01  0 0 0 # h
     35       6    3   0.1000  3.197300e+01  3.982000e+01  3.173300e+01  0 0 0 # h
     36       6    4   0.3500  3.414900e+01  3.929400e+01  3.283800e+01  0 0 0 # ho
     37       7    1   1.4654  3.179600e+01  2.578900e+01  1.513800e+01  0 0 0 # CTO DC
     38       7    2   1.3795  3.044100e+01  2.512400e+01  1.515600e+01  0 0 0 # OH DC
     39       7    3   0.1000  3.172000e+01  2.682000e+01  1.561800e+01  0 0 0 # h
     40       7    3   0.1000  3.215100e+01  2.589800e+01  1.405900e+01  0 0 0 # h
     41       7    3   0.1000  3.254000e+01  2.515200e+01  1.572100e+01  0 0 0 # h
     42       7    4   0.3500  3.009500e+01  2.501800e+01  1.620600e+01  0 0 0 # ho
     43       8    1   1.4654  1.740800e+01  1.647300e+01  3.137000e+01  0 0 0 # CTO DC
     44       8    2   1.3795  1.730200e+01  1.593300e+01  2.996400e+01  0 0 0 # OH DC
     45       8    3   0.1000  1.694500e+01  1.751400e+01  3.141300e+01  0 0 0 # h
     46       8    3   0.1000  1.850600e+01  1.653200e+01  3.167200e+01  0 0 0 # h
     47       8    3   0.1000  1.685400e+01  1.578100e+01  3.208700e+01  0 0 0 # h
     48       8    4   0.3500  1.623200e+01  1.587500e+01  2.967000e+01  0 0 0 # ho
     49       9    1   1.4654  3.148600e+01  2.969300e+01  4.304000e+00  0 0 0 # CTO DC
     50       9    2   1.3795  3.184300e+01  3.102500e+01  3.688000e+00  0 0 0 # OH DC
     51       9    3   0.1000  3.054600e+01  2.928300e+01  3.806000e+00  0 0 0 # h
     52       9    3   0.1000  3.129600e+01  2.982900e+01  5.421000e+00  0 0 0 # h
     53       9    3   0.1000  3.234700e+01  2.896100e+01  4.152000e+00  0 0 0 # h
     54       9    4   0.3500  3.202800e+01  3.089100e+01  2.602000e+00  0 0 0 # ho
     55      10    1   1.4654  2.455000e+01  2.632500e+01  8.393000e+00  0 0 0 # CTO DC
     56      10    2   1.3795  2.595900e+01  2.682700e+01  8.192000e+00  0 0 0 # OH DC
     57      10    3   0.1000  2.381800e+01  2.702700e+01  7.873000e+00  0 0 0 # h
     58      10    3   0.1000  2.431400e+01  2.628800e+01  9.508000e+00  0 0 0 # h
     59      10    3   0.1000  2.445200e+01  2.527900e+01  7.950000e+00  0 0 0 # h
     60      10    4   0.3500  2.618800e+01  2.686200e+01  7.106000e+00  0 0 0 # ho
     61      11    1   1.4654  3.853000e+00  3.271800e+01  1.951000e+01  0 0 0 # CTO DC
     62      11    2   1.3795  3.023000e+00  3.193300e+01  1.852400e+01  0 0 0 # OH DC
     63      11    3   0.1000  4.957000e+00  3.248200e+01  1.935100e+01  0 0 0 # h
     64      11    3   0.1000  3.553000e+00  3.243000e+01  2.057300e+01  0 0 0 # h
     65      11    3   0.1000  3.676000e+00  3.383300e+01  1.935400e+01  0 0 0 # h
     66      11    4   0.3500  3.315000e+00  3.221300e+01  1.749000e+01  0 0 0 # ho
     67      12    1   1.4654  1.926500e+01  1.885700e+01  6.429000e+00  0 0 0 # CTO DC
     68      12    2   1.3795  1.807000e+01  1.957600e+01  7.006000e+00  0 0 0 # OH DC
     69      12    3   0.1000  1.891300e+01  1.794700e+01  5.839000e+00  0 0 0 # h
     70      12    3   0.1000  1.995100e+01  1.851900e+01  7.276000e+00  0 0 0 # h
     71      12    3   0.1000  1.983500e+01  1.956100e+01  5.737000e+00  0 0 0 # h
     72      12    4   0.3500  1.740300e+01  1.990600e+01  6.182000e+00  0 0 0 # ho
     73      13    1   1.4654  2.612800e+01  4.358000e+00  1.863800e+01  0 0 0 # CTO DC
     74      13    2   1.3795  2.632300e+01  5.136000e+00  1.735900e+01  0 0 0 # OH DC
     75      13    3   0.1000  2.567700e+01  5.040000e+00  1.943200e+01  0 0 0 # h
     76      13    3   0.1000  2.713600e+01  3.966000e+00  1.900100e+01  0 0 0 # h
     77      13    3   0.1000  2.542600e+01  3.480000e+00  1.844700e+01  0 0 0 # h
     78      13    4   0.3500  2.534100e+01  5.517000e+00  1.700500e+01  0 0 0 # ho
     79      14    1   1.4654  1.458300e+01  1.896700e+01  3.348200e+01  0 0 0 # CTO DC
     80      14    2   1.3795  1.488500e+01  1.749700e+01  3.364400e+01  0 0 0 # OH DC
     81      14    3   0.1000  1.540800e+01  1.946000e+01  3.287000e+01  0 0 0 # h
     82      14    3   0.1000  1.452600e+01  1.945900e+01  3.451000e+01  0 0 0 # h
     83      14    3   0.1000  1.358500e+01  1.909300e+01  3.294500e+01  0 0 0 # h
     84      14    4   0.3500  1.494000e+01  1.701900e+01  3.264300e+01  0 0 0 # ho
     85      15    1   1.4654  3.918900e+01  1.315600e+01  1.626500e+01  0 0 0 # CTO DC
     86      15    2   1.3795 -3.380013e-01  1.173400e+01  1.645200e+01  1 0 0 # OH DC
     87      15    3   0.1000  3.806300e+01  1.320700e+01  1.643100e+01  0 0 0 # h
     88      15    3   0.1000 -5.670013e-01  1.350100e+01  1.520600e+01  1 0 0 # h
     89      15    3   0.1000 -2.849998e-01  1.383400e+01  1.701600e+01  1 0 0 # h
     90      15    4   0.3500 -5.750008e-01  1.139900e+01  1.748400e+01  1 0 0 # ho
     91      16    1   1.4654  2.805000e+00  3.294300e+01  3.314200e+01  0 0 0 # CTO DC
     92      16    2   1.3795  3.474000e+00  3.269400e+01  3.181200e+01  0 0 0 # OH DC
     93      16    3   0.1000  2.832000e+00  3.405800e+01  3.337800e+01  0 0 0 # h
     94      16    3   0.1000  3.357000e+00  3.236800e+01  3.395800e+01  0 0 0 # h
     95      16    3   0.1000  1.722000e+00  3.259000e+01  3.309500e+01  0 0 0 # h
     96      16    4   0.3500  2.936000e+00  3.325300e+01  3.101700e+01  0 0 0 # ho
     97      17    1   1.4654  3.105000e+01  1.110200e+01  3.609500e+01  0 0 0 # CTO DC
     98      17    2   1.3795  3.123400e+01  9.823000e+00  3.531400e+01  0 0 0 # OH DC
     99      17    3   0.1000  3.020000e+01  1.097200e+01  3.684400e+01  0 0 0 # h
    100      17    3   0.1000  3.079700e+01  1.195200e+01  3.537700e+01  0 0 0 # h
    101      17    3   0.1000  3.201300e+01  1.135000e+01  3.665200e+01  0 0 0 # h
    102      17    4   0.3500  3.148000e+01  8.996000e+00  3.601300e+01  0 0 0 # ho
    103      18    1   1.4654  1.020800e+01  1.971300e+01  1.300100e+01  0 0 0 # CTO DC
    104      18    2   1.3795  1.142200e+01  1.885200e+01  1.274500e+01  0 0 0 # OH DC
    105      18    3   0.1000  1.050600e+01  2.061000e+01  1.363800e+01  0 0 0 # h
    106      18    3   0.1000  9.418000e+00  1.910200e+01  1.355100e+01  0 0 0 # h
    107      18    3   0.1000  9.783000e+00  2.007700e+01  1.200800e+01  0 0 0 # h
    108      18    4   0.3500  1.219100e+01  1.944800e+01  1.220900e+01  0 0 0 # ho
    109      19    1   1.4654  3.219800e+01  1.663500e+01  1.559000e+01  0 0 0 # CTO DC
    110      19    2   1.3795  3.287000e+01  1.792300e+01  1.517900e+01  0 0 0 # OH DC
    111      19    3   0.1000  3.223300e+01  1.653300e+01  1.672500e+01  0 0 0 # h
    112      19    3   0.1000  3.274300e+01  1.575400e+01  1.511300e+01  0 0 0 # h
    113      19    3   0.1000  3.111200e+01  1.664400e+01  1.524200e+01  0 0 0 # h
    114      19    4   0.3500  3.233900e+01  1.878100e+01  1.564300e+01  0 0 0 # ho
    115      20    1   1.4654  1.300100e+01  4.424000e+00  3.076400e+01  0 0 0 # CTO DC
    116      20    2   1.3795  1.165000e+01  5.040000e+00  3.103800e+01  0 0 0 # OH DC
    117      20    3   0.1000  1.377800e+01  4.887000e+00  3.145800e+01  0 0 0 # h
    118      20    3   0.1000  1.329500e+01  4.621000e+00  2.968000e+01  0 0 0 # h
    119      20    3   0.1000  1.295100e+01  3.300000e+00  3.094600e+01  0 0 0 # h
    120      20    4   0.3500  1.136400e+01  4.847000e+00  3.209400e+01  0 0 0 # ho
    121      21    1   1.4654  1.779600e+01  2.226700e+01  1.748000e+01  0 0 0 # CTO DC
    122      21    2   1.3795  1.674000e+01  2.170500e+01  1.840000e+01  0 0 0 # OH DC
    123      21    3   0.1000  1.859200e+01  2.147500e+01  1.728400e+01  0 0 0 # h
    124      21    3   0.1000  1.827900e+01  2.317900e+01  1.796700e+01  0 0 0 # h
    125      21    3   0.1000  1.731600e+01  2.257500e+01  1.649200e+01  0 0 0 # h
    126      21    4   0.3500  1.627000e+01  2.081800e+01  1.792500e+01  0 0 0 # ho
    127      22    1   1.4654  3.607900e+01  1.121200e+01  3.361900e+01  0 0 0 # CTO DC
    128      22    2   1.3795  3.719800e+01  1.215800e+01  3.325500e+01  0 0 0 # OH DC
    129      22    3   0.1000  3.649000e+01  1.036700e+01  3.426400e+01  0 0 0 # h
    130      22    3   0.1000  3.562500e+01  1.077600e+01  3.266700e+01  0 0 0 # h
    131      22    3   0.1000  3.527600e+01  1.177700e+01  3.419800e+01  0 0 0 # h
    132      22    4   0.3500  3.763900e+01  1.258200e+01  3.418100e+01  0 0 0 # ho
    133      23    1   1.4654  1.379100e+01  1.761700e+01  2.000800e+01  0 0 0 # CTO DC
    134      23    2   1.3795  1.273000e+01  1.852100e+01  2.058800e+01  0 0 0 # OH DC
    135      23    3   0.1000  1.340500e+01  1.654400e+01  1.998600e+01  0 0 0 # h
    136      23    3   0.1000  1.473000e+01  1.767000e+01  2.065400e+01  0 0 0 # h
    137      23    3   0.1000  1.404000e+01  1.795300e+01  1.894700e+01  0 0 0 # h
    138      23    4   0.3500  1.181600e+01  1.846900e+01  1.995800e+01  0 0 0 # ho
    139      24    1   1.4654  2.576800e+01  8.217000e+00  2.573000e+00  0 0 0 # CTO DC
    140      24    2   1.3795  2.700900e+01  8.699000e+00  3.285000e+00  0 0 0 # OH DC
    141      24    3   0.1000  2.538400e+01  7.270000e+00  3.077000e+00  0 0 0 # h
    142      24    3   0.1000  2.601900e+01  7.993000e+00  1.483000e+00  0 0 0 # h
    143      24    3   0.1000  2.496500e+01  9.025000e+00  2.619000e+00  0 0 0 # h
    144      24    4   0.3500  2.676500e+01  8.917000e+00  4.346000e+00  0 0 0 # ho
    145      25    1   1.4654  2.327800e+01  1.515800e+01  3.525500e+01  0 0 0 # CTO DC
    146      25    2   1.3795  2.184600e+01  1.563500e+01  3.529700e+01  0 0 0 # OH DC
    147      25    3   0.1000  2.332600e+01  1.414500e+01  3.473400e+01  0 0 0 # h
    148      25    3   0.1000  2.367500e+01  1.505700e+01  3.632000e+01  0 0 0 # h
    149      25    3   0.1000  2.391400e+01  1.591100e+01  3.468200e+01  0 0 0 # h
    150      25    4   0.3500  2.145900e+01  1.573300e+01  3.426000e+01  0 0 0 # ho
    151      26    1   1.4654  5.185000e+00  5.740000e+00  3.855300e+01  0 0 0 # CTO DC
    152      26    2   1.3795  6.600000e+00  5.960000e+00  3.807500e+01  0 0 0 # OH DC
    153      26    3   0.1000  4.531000e+00  6.612000e+00  3.821900e+01  0 0 0 # h
    154      26    3   0.1000  5.175000e+00  5.673000e+00  3.969200e+01  0 0 0 # h
    155      26    3   0.1000  4.780000e+00  4.770000e+00  3.811100e+01  0 0 0 # h
    156      26    4   0.3500  6.610000e+00  6.025000e+00  3.696700e+01  0 0 0 # ho
    157      27    1   1.4654  5.261000e+00  7.133000e+00  2.695300e+01  0 0 0 # CTO DC
    158      27    2   1.3795  4.468000e+00  6.225000e+00  2.604300e+01  0 0 0 # OH DC
    159      27    3   0.1000  4.631000e+00  8.043000e+00  2.722400e+01  0 0 0 # h
    160      27    3   0.1000  6.209000e+00  7.472000e+00  2.641800e+01  0 0 0 # h
    161      27    3   0.1000  5.542000e+00  6.568000e+00  2.790300e+01  0 0 0 # h
    162      27    4   0.3500  3.545000e+00  5.895000e+00  2.656400e+01  0 0 0 # ho
    163      28    1   1.4654  2.230900e+01  7.544000e+00  2.533000e+00  0 0 0 # CTO DC
    164      28    2   1.3795  2.319400e+01  6.600000e+00  3.311000e+00  0 0 0 # OH DC
    165      28    3   0.1000  2.131400e+01  7.666000e+00  3.076000e+00  0 0 0 # h
    166      28    3   0.1000  2.212400e+01  7.120000e+00  1.491000e+00  0 0 0 # h
    167      28    3   0.1000  2.282000e+01  8.560000e+00  2.445000e+00  0 0 0 # h
    168      28    4   0.3500  2.337400e+01  7.014000e+00  4.325000e+00  0 0 0 # ho
    169      29    1   1.4654  2.820300e+01  8.732000e+00  3.431400e+01  0 0 0 # CTO DC
    170      29    2   1.3795  2.784900e+01  9.947000e+00  3.349100e+01  0 0 0 # OH DC
    171      29    3   0.1000  2.790200e+01  8.907000e+00  3.539900e+01  0 0 0 # h
    172      29    3   0.1000  2.932700e+01  8.548000e+00  3.425600e+01  0 0 0 # h
    173      29    3   0.1000  2.764800e+01  7.822000e+00  3.390800e+01  0 0 0 # h
    174      29    4   0.3500  2.675500e+01  1.012600e+01  3.354700e+01  0 0 0 # ho
    175      30    1   1.4654  3.105700e+01  1.119000e+01  3.277500e+01  0 0 0 # CTO DC
    176      30    2   1.3795  3.107900e+01  1.246700e+01  3.196900e+01  0 0 0 # OH DC
    177      30    3   0.1000  3.197600e+01  1.114900e+01  3.344700e+01  0 0 0 # h
    178      30    3   0.1000  3.106100e+01  1.029500e+01  3.206900e+01  0 0 0 # h
    179      30    3   0.1000  3.011500e+01  1.116300e+01  3.341800e+01  0 0 0 # h
    180      30    4   0.3500  3.107500e+01  1.333800e+01  3.265700e+01  0 0 0 # ho
    181      31    1   1.4654  8.011000e+00  1.677000e+01  1.291100e+01  0 0 0 # CTO DC
    182      31    2   1.3795  8.634000e+00  1.563800e+01  1.369300e+01  0 0 0 # OH DC
    183      31    3   0.1000  8.768000e+00  1.717500e+01  1.216100e+01  0 0 0 # h
    184      31    3   0.1000  7.702000e+00  1.760100e+01  1.362700e+01  0 0 0 # h
    185      31    3   0.1000  7.093000e+00  1.638700e+01  1.235400e+01  0 0 0 # h
    186      31    4   0.3500  8.934000e+00  1.482800e+01  1.299500e+01  0 0 0 # ho
    187      32    1   1.4654  3.211600e+01  2.467500e+01  1.966600e+01  0 0 0 # CTO DC
    188      32    2   1.3795  3.174600e+01  2.604600e+01  2.018100e+01  0 0 0 # OH DC
    189      32    3   0.1000  3.139700e+01  2.437600e+01  1.883300e+01  0 0 0 # h
    190      32    3   0.1000  3.204800e+01  2.391800e+01  2.051700e+01  0 0 0 # h
    191      32    3   0.1000  3.318100e+01  2.469600e+01  1.926000e+01  0 0 0 # h
    192      32    4   0.3500  3.181200e+01  2.678200e+01  1.935300e+01  0 0 0 # ho
    193      33    1   1.4654  9.691000e+00  2.105000e+00  2.312800e+01  0 0 0 # CTO DC
    194      33    2   1.3795  9.129000e+00  3.439000e+00  2.269600e+01  0 0 0 # OH DC
    195      33    3   0.1000  1.035600e+01  1.687000e+00  2.230200e+01  0 0 0 # h
    196      33    3   0.1000  8.835000e+00  1.380000e+00  2.333000e+01  0 0 0 # h
    197      33    3   0.1000  1.030700e+01  2.241000e+00  2.407800e+01  0 0 0 # h
    198      33    4   0.3500  9.964000e+00  4.145000e+00  2.250000e+01  0 0 0 # ho
    199      34    1   1.4654  1.215200e+01  4.307000e+00  2.770000e+00  0 0 0 # CTO DC
    200      34    2   1.3795  1.251800e+01  3.572000e+00  4.037000e+00  0 0 0 # OH DC
    201      34    3   0.1000  1.240600e+01  5.412000e+00  2.884000e+00  0 0 0 # h
    202      34    3   0.1000  1.103400e+01  4.192000e+00  2.574000e+00  0 0 0 # h
    203      34    3   0.1000  1.273800e+01  3.871000e+00  1.895000e+00  0 0 0 # h
    204      34    4   0.3500  1.360600e+01  3.684000e+00  4.228000e+00  0 0 0 # ho
    205      35    1   1.4654  1.795500e+01  3.779100e+01  3.095900e+01  0 0 0 # CTO DC
    206      35    2   1.3795  1.681100e+01  3.683600e+01  3.071400e+01  0 0 0 # OH DC
    207      35    3   0.1000  1.768300e+01  3.850000e+01  3.180800e+01  0 0 0 # h
    208      35    3   0.1000  1.815600e+01  3.839300e+01  3.001100e+01  0 0 0 # h
    209      35    3   0.1000  1.888900e+01  3.720100e+01  3.124000e+01  0 0 0 # h
    210      35    4   0.3500  1.661500e+01  3.625000e+01  3.163600e+01  0 0 0 # ho
    211      36    1   1.4654  3.890800e+01  1.238500e+01  2.955400e+01  0 0 0 # CTO DC
    212      36    2   1.3795  3.829300e+01  1.373100e+01  2.985400e+01  0 0 0 # OH DC
    213      36    3   0.1000  3.834400e+01  1.189200e+01  2.869500e+01  0 0 0 # h
    214      36    3   0.1000  3.884400e+01  1.172300e+01  3.048000e+01  0 0 0 # h
    215      36    3   0.1000  1.998901e-03  1.252300e+01  2.926000e+01  1 0 0 # h
    216      36    4   0.3500  3.835600e+01  1.437500e+01  2.895100e+01  0 0 0 # ho
    217      37    1   1.4654  3.235900e+01  9.092000e+00  1.665000e+01  0 0 0 # CTO DC
    218      37    2   1.3795  3.101000e+01  9.750000e+00  1.649200e+01  0 0 0 # OH DC
    219      37    3   0.1000  3.306800e+01  9.802000e+00  1.719100e+01  0 0 0 # h
    220      37    3   0.1000  3.278300e+01  8.843000e+00  1.562000e+01  0 0 0 # h
    221      37    3   0.1000  3.224600e+01  8.133000e+00  1.725600e+01  0 0 0 # h
    222      37    4   0.3500  3.059700e+01  9.992000e+00  1.749500e+01  0 0 0 # ho
    223      38    1   1.4654  1.982800e+01  2.235400e+01  9.492000e+00  0 0 0 # CTO DC
    224      38    2   1.3795  2.038300e+01  2.142700e+01  8.438000e+00  0 0 0 # OH DC
    225      38    3   0.1000  1.977400e+01  2.180700e+01  1.049000e+01  0 0 0 # h
    226      38    3   0.1000  1.878200e+01  2.269300e+01  9.188000e+00  0 0 0 # h
    227      38    3   0.1000  2.050700e+01  2.326400e+01  9.595000e+00  0 0 0 # h
    228      38    4   0.3500  2.140100e+01  2.109700e+01  8.735000e+00  0 0 0 # ho
    229      39    1   1.4654  3.362700e+01  1.413000e+01  7.528000e+00  0 0 0 # CTO DC
    230      39    2   1.3795  3.473400e+01  1.515600e+01  7.566000e+00  0 0 0 # OH DC
    231      39    3   0.1000  3.264500e+01  1.464000e+01  7.255000e+00  0 0 0 # h
    232      39    3   0.1000  3.352800e+01  1.363900e+01  8.553000e+00  0 0 0 # h
    233      39    3   0.1000  3.387200e+01  1.333500e+01  6.748000e+00  0 0 0 # h
    234      39    4   0.3500  3.483000e+01  1.563300e+01  6.568000e+00  0 0 0 # ho
    235      40    1   1.4654  1.886000e+01  2.913400e+01  3.325500e+01  0 0 0 # CTO DC
    236      40    2   1.3795  1.939800e+01  3.032900e+01  3.250500e+01  0 0 0 # OH DC
    237      40    3   0.1000  1.962300e+01  2.828800e+01  3.322100e+01  0 0 0 # h
    238      40    3   0.1000  1.788700e+01  2.878800e+01  3.277100e+01  0 0 0 # h
    239      40    3   0.1000  1.866200e+01  2.942300e+01  3.434000e+01  0 0 0 # h
    240      40    4   0.3500  2.034500e+01  3.066600e+01  3.297700e+01  0 0 0 # ho
    241      41    1   1.4654  2.008100e+01  2.679200e+01  9.624000e+00  0 0 0 # CTO DC
    242      41    2   1.3795  2.134000e+01  2.694300e+01  8.804000e+00  0 0 0 # OH DC
    243      41    3   0.1000  1.969600e+01  2.572300e+01  9.537000e+00  0 0 0 # h
    244      41    3   0.1000  1.928700e+01  2.751500e+01  9.238000e+00  0 0 0 # h
    245      41    3   0.1000  2.030800e+01  2.702700e+01  1.071700e+01  0 0 0 # h
    246      41    4   0.3500  2.211200e+01  2.624000e+01  9.181000e+00  0 0 0 # ho
    247      42    1   1.4654  4.765000e+00  2.906000e+01  3.895600e+01  0 0 0 # CTO DC
    248      42    2   1.3795  3.402000e+00  2.949300e+01  3.944000e+01  0 0 0 # OH DC
    249      42    3   0.1000  5.162000e+00  2.982200e+01  3.820700e+01  0 0 0 # h
    250      42    3   0.1000  4.683000e+00  2.804000e+01  3.845300e+01  0 0 0 # h
    251      42    3   0.1000  5.480000e+00  2.899100e+01  3.984200e+01  0 0 0 # h
    252      42    4   0.3500  3.483000e+00  3.048700e+01  3.993000e+01  0 0 0 # ho
    253      43    1   1.4654  2.766500e+01  6.959000e+00  2.912300e+01  0 0 0 # CTO DC
    254      43    2   1.3795  2.753500e+01  7.054000e+00  2.762200e+01  0 0 0 # OH DC
    255      43    3   0.1000  2.874700e+01  7.152000e+00  2.942400e+01  0 0 0 # h
    256      43    3   0.1000  2.735600e+01  5.915000e+00  2.946600e+01  0 0 0 # h
    257      43    3   0.1000  2.698900e+01  7.735000e+00  2.961400e+01  0 0 0 # h
    258      43    4   0.3500  2.783500e+01  8.070000e+00  2.728900e+01  0 0 0 # ho
    259      44    1   1.4654  1.817800e+01  4.027000e+00  1.428900e+01  0 0 0 # CTO DC
    260      44    2   1.3795  1.951200e+01  4.593000e+00  1.386500e+01  0 0 0 # OH DC
    261      44    3   0.1000  1.775900e+01  4.644000e+00  1.515100e+01  0 0 0 # h
    262      44    3   0.1000  1.831400e+01  2.946000e+00  1.462600e+01  0 0 0 # h
    263      44    3   0.1000  1.745300e+01  4.062000e+00  1.340900e+01  0 0 0 # h
    264      44    4   0.3500  1.937900e+01  5.646000e+00  1.353600e+01  0 0 0 # ho
    265      45    1   1.4654  5.253000e+00  3.860300e+01  6.192000e+00  0 0 0 # CTO DC
    266      45    2   1.3795  4.636000e+00  3.723400e+01  6.030000e+00  0 0 0 # OH DC
    267      45    3   0.1000  4.501000e+00  3.930300e+01  6.686000e+00  0 0 0 # h
    268      45    3   0.1000  5.539000e+00  3.901400e+01  5.167000e+00  0 0 0 # h
    269      45    3   0.1000  6.185000e+00  3.852600e+01  6.844000e+00  0 0 0 # h
    270      45    4   0.3500  4.358000e+00  3.683400e+01  7.028000e+00  0 0 0 # ho
    271      46    1   1.4654  1.581700e+01  2.195000e+01  2.406000e+00  0 0 0 # CTO DC
    272      46    2   1.3795  1.480300e+01  2.274300e+01  1.618000e+00  0 0 0 # OH DC
    273      46    3   0.1000  1.682800e+01  2.199700e+01  1.881000e+00  0 0 0 # h
    274      46    3   0.1000  1.547700e+01  2.086300e+01  2.478000e+00  0 0 0 # h
    275      46    3   0.1000  1.591300e+01  2.238800e+01  3.454000e+00  0 0 0 # h
    276      46    4   0.3500  1.513400e+01  2.380100e+01  1.548000e+00  0 0 0 # ho
    277      47    1   1.4654  1.624600e+01  2.210000e+00  3.597100e+01  0 0 0 # CTO DC
    278      47    2   1.3795  1.529800e+01  3.171000e+00  3.529300e+01  0 0 0 # OH DC
    279      47    3   0.1000  1.689200e+01  2.778000e+00  3.671900e+01  0 0 0 # h
    280      47    3   0.1000  1.691300e+01  1.719000e+00  3.518800e+01  0 0 0 # h
    281      47    3   0.1000  1.564700e+01  1.408000e+00  3.651800e+01  0 0 0 # h
    282      47    4   0.3500  1.464800e+01  3.649000e+00  3.605600e+01  0 0 0 # ho
    283      48    1   1.4654  8.649000e+00  2.754700e+01  3.746300e+01  0 0 0 # CTO DC
    284      48    2   1.3795  8.020000e+00  2.874900e+01  3.812500e+01  0 0 0 # OH DC
    285      48    3   0.1000  7.864000e+00  2.699800e+01  3.684500e+01  0 0 0 # h
    286      48    3   0.1000  9.061000e+00  2.684500e+01  3.826400e+01  0 0 0 # h
    287      48    3   0.1000  9.499000e+00  2.788700e+01  3.678300e+01  0 0 0 # h
    288      48    4   0.3500  7.620000e+00  2.943200e+01  3.734600e+01  0 0 0 # ho
    289      49    1   1.4654  2.141500e+01  7.263000e+00  3.778900e+01  0 0 0 # CTO DC
    290      49    2   1.3795  2.201900e+01  8.630000e+00  3.757700e+01  0 0 0 # OH DC
    291      49    3   0.1000  2.035100e+01  7.250000e+00  3.738300e+01  0 0 0 # h
    292      49    3   0.1000  2.140000e+01  7.023000e+00  3.890500e+01  0 0 0 # h
    293      49    3   0.1000  2.204000e+01  6.482000e+00  3.724200e+01  0 0 0 # h
    294      49    4   0.3500  2.203500e+01  8.863000e+00  3.649200e+01  0 0 0 # ho
    295      50    1   1.4654  2.220600e+01  2.619200e+01  1.630700e+01  0 0 0 # CTO DC
    296      50    2   1.3795  2.264900e+01  2.521500e+01  1.524400e+01  0 0 0 # OH DC
    297      50    3   0.1000  2.134400e+01  2.574200e+01  1.690200e+01  0 0 0 # h
    298      50    3   0.1000  2.186300e+01  2.716100e+01  1.581300e+01  0 0 0 # h
    299      50    3   0.1000  2.307800e+01  2.641100e+01  1.700900e+01  0 0 0 # h
    300      50    4   0.3500  2.298300e+01  2.427100e+01  1.572600e+01  0 0 0 # ho
    301      51    1   1.4654  3.472300e+01  2.217600e+01  2.283800e+01  0 0 0 # CTO DC
    302      51    2   1.3795  3.598600e+01  2.135400e+01  2.291500e+01  0 0 0 # OH DC
    303      51    3   0.1000  3.397300e+01  2.165800e+01  2.215400e+01  0 0 0 # h
    304      51    3   0.1000  3.496700e+01  2.320900e+01  2.242100e+01  0 0 0 # h
    305      51    3   0.1000  3.427500e+01  2.228400e+01  2.388100e+01  0 0 0 # h
    306      51    4   0.3500  3.574900e+01  2.034800e+01  2.332200e+01  0 0 0 # ho
    307      52    1   1.4654  3.684600e+01  2.533900e+01  2.475000e+00  0 0 0 # CTO DC
    308      52    2   1.3795  3.610200e+01  2.452000e+01  3.503000e+00  0 0 0 # OH DC
    309      52    3   0.1000  3.796800e+01  2.524900e+01  2.658000e+00  0 0 0 # h
    310      52    3   0.1000  3.653300e+01  2.643200e+01  2.561000e+00  0 0 0 # h
    311      52    3   0.1000  3.659900e+01  2.495400e+01  1.431000e+00  0 0 0 # h
    312      52    4   0.3500  3.640700e+01  2.345600e+01  3.418000e+00  0 0 0 # ho
    313      53    1   1.4654  1.802400e+01  3.428700e+01  2.861000e+01  0 0 0 # CTO DC
    314      53    2   1.3795  1.773800e+01  3.285100e+01  2.897900e+01  0 0 0 # OH DC
    315      53    3   0.1000  1.896600e+01  3.433500e+01  2.797000e+01  0 0 0 # h
    316      53    3   0.1000  1.817800e+01  3.490000e+01  2.956000e+01  0 0 0 # h
    317      53    3   0.1000  1.714400e+01  3.471200e+01  2.802300e+01  0 0 0 # h
    318      53    4   0.3500  1.758800e+01  3.225500e+01  2.805500e+01  0 0 0 # ho
    319      54    1   1.4654  1.965500e+01  1.963800e+01  3.295900e+01  0 0 0 # CTO DC
    320      54    2   1.3795  1.836100e+01  1.921000e+01  3.230900e+01  0 0 0 # OH DC
    321      54    3   0.1000  2.046400e+01  1.886500e+01  3.274000e+01  0 0 0 # h
    322      54    3   0.1000  1.950400e+01  1.972100e+01  3.408600e+01  0 0 0 # h
    323      54    3   0.1000  1.997400e+01  2.065000e+01  3.254200e+01  0 0 0 # h
    324      54    4   0.3500  1.850900e+01  1.912900e+01  3.121100e+01  0 0 0 # ho
    325      55    1   1.4654  2.447600e+01  9.870000e-01  2.001600e+01  0 0 0 # CTO DC
    326      55    2   1.3795  2.572900e+01  1.293000e+00  2.080100e+01  0 0 0 # OH DC
    327      55    3   0.1000  2.403500e+01  3.999900e+01  2.037400e+01  0 -1 0 # h
    328      55    3   0.1000  2.473200e+01  9.090000e-01  1.890700e+01  0 0 0 # h
    329      55    3   0.1000  2.371600e+01  1.822000e+00  2.017200e+01  0 0 0 # h
    330      55    4   0.3500  2.548000e+01  1.369000e+00  2.188000e+01  0 0 0 # ho
    331      56    1   1.4654  2.222500e+01  2.378700e+01  2.288400e+01  0 0 0 # CTO DC
    332      56    2   1.3795  2.091300e+01  2.308600e+01  2.314600e+01  0 0 0 # OH DC
    333      56    3   0.1000  2.216700e+01  2.485800e+01  2.327000e+01  0 0 0 # h
    334      56    3   0.1000  2.243200e+01  2.379800e+01  2.176200e+01  0 0 0 # h
    335      56    3   0.1000  2.306600e+01  2.323500e+01  2.342000e+01  0 0 0 # h
    336      56    4   0.3500  2.071200e+01  2.307500e+01  2.423800e+01  0 0 0 # ho
    337      57    1   1.4654  1.130700e+01  3.129100e+01  3.168100e+01  0 0 0 # CTO DC
    338      57    2   1.3795  1.066400e+01  3.106400e+01  3.033400e+01  0 0 0 # OH DC
    339      57    3   0.1000  1.143000e+01  3.241000e+01  3.186000e+01  0 0 0 # h
    340      57    3   0.1000  1.233000e+01  3.078800e+01  3.170400e+01  0 0 0 # h
    341      57    3   0.1000  1.064700e+01  3.084600e+01  3.249800e+01  0 0 0 # h
    342      57    4   0.3500  9.668000e+00  3.155400e+01  3.031200e+01  0 0 0 # ho
    343      58    1   1.4654  1.510400e+01  2.306400e+01  9.141000e+00  0 0 0 # CTO DC
    344      58    2   1.3795  1.398700e+01  2.292600e+01  8.134000e+00  0 0 0 # OH DC