LAMMPS data file. msi2lmp v3.9.9 / 05 Nov 2018 / CGCMM for h2o_swdp

4000 atoms
3200 bonds
800 angles
0 dihedrals
0 impropers
4 atom types
3 bond types
1 angle types
0.084738 60.084738 xlo xhi
0.095625 60.095625 ylo yhi
0.235719 60.235719 zlo zhi

Masses

   1   15.199  # ODw DC
   2    1.008  # Hw
   3   1.e-16  # M
   4    0.800  # ODw DP

Bond Coeffs

   1   540.6336     0.9600
   2   500.0        0.240340
   3   500.000000     0.000000  # ODw DC-DP

Angle Coeffs

   1    37.950526   104.520

Atoms

      1       1    1   1.7162  3.332800e+01  3.769000e+01  3.400200e+01  0 0 0 # ODw DC
      2       1    2   0.5573  3.399900e+01  3.759700e+01  3.467900e+01  0 0 0 # Hw
      3       1    2   0.5573  3.338300e+01  3.687900e+01  3.349700e+01  0 0 0 # Hw
      4       1    3  -1.1146  3.347700e+01  3.750500e+01  3.403700e+01  0 0 0 # M
      5       2    1   1.7162  2.228800e+01  3.372000e+01  3.909700e+01  0 0 0 # ODw DC
      6       2    2   0.5573  2.171100e+01  3.311500e+01  3.956200e+01  0 0 0 # Hw
      7       2    2   0.5573  2.170500e+01  3.440300e+01  3.876800e+01  0 0 0 # Hw
      8       2    3  -1.1146  2.205100e+01  3.373500e+01  3.912500e+01  0 0 0 # M
      9       3    1   1.7162  3.121000e+01  3.218400e+01  3.939000e+01  0 0 0 # ODw DC
     10       3    2   0.5573  3.086200e+01  3.169400e+01  4.013600e+01  0 0 0 # Hw
     11       3    2   0.5573  3.190900e+01  3.163000e+01  3.904400e+01  0 0 0 # Hw
     12       3    3  -1.1146  3.128200e+01  3.197000e+01  3.947200e+01  0 0 0 # M
     13       4    1   1.7162  3.100400e+01  3.493000e+01  2.621500e+01  0 0 0 # ODw DC
     14       4    2   0.5573  3.069800e+01  3.405100e+01  2.599100e+01  0 0 0 # Hw
     15       4    2   0.5573  3.195300e+01  3.484000e+01  2.629500e+01  0 0 0 # Hw
     16       4    3  -1.1146  3.113500e+01  3.473100e+01  2.618600e+01  0 0 0 # M
     17       5    1   1.7162  3.925800e+01  3.427400e+01  3.844400e+01  0 0 0 # ODw DC
     18       5    2   0.5573  3.914200e+01  3.517700e+01  3.874200e+01  0 0 0 # Hw
     19       5    2   0.5573  3.932700e+01  3.376300e+01  3.925000e+01  0 0 0 # Hw
     20       5    3  -1.1146  3.924800e+01  3.435500e+01  3.867000e+01  0 0 0 # M
     21       6    1   1.7162  1.752600e+01  3.387200e+01  2.974300e+01  0 0 0 # ODw DC
     22       6    2   0.5573  1.813200e+01  3.461300e+01  2.973600e+01  0 0 0 # Hw
     23       6    2   0.5573  1.668900e+01  3.424900e+01  3.001000e+01  0 0 0 # Hw
     24       6    3  -1.1146  1.747900e+01  3.410100e+01  2.979600e+01  0 0 0 # M
     25       7    1   1.7162  2.252500e+01  3.792100e+01  2.097800e+01  0 0 0 # ODw DC
     26       7    2   0.5573  2.300900e+01  3.826100e+01  2.022400e+01  0 0 0 # Hw
     27       7    2   0.5573  2.279000e+01  3.700400e+01  2.103900e+01  0 0 0 # Hw
     28       7    3  -1.1146  2.267900e+01  3.780300e+01  2.083600e+01  0 0 0 # M
     29       8    1   1.7162  2.668400e+01  1.832900e+01  3.752200e+01  0 0 0 # ODw DC
     30       8    2   0.5573  2.678400e+01  1.779100e+01  3.673700e+01  0 0 0 # Hw
     31       8    2   0.5573  2.693900e+01  1.920800e+01  3.724500e+01  0 0 0 # Hw
     32       8    3  -1.1146  2.675700e+01  1.839800e+01  3.730500e+01  0 0 0 # M
     33       9    1   1.7162  3.641800e+01  4.320000e+01  2.644900e+01  0 0 0 # ODw DC
     34       9    2   0.5573  3.696700e+01  4.271300e+01  2.583400e+01  0 0 0 # Hw
     35       9    2   0.5573  3.684100e+01  4.307600e+01  2.729800e+01  0 0 0 # Hw
     36       9    3  -1.1146  3.661700e+01  4.307500e+01  2.649700e+01  0 0 0 # M
     37      10    1   1.7162  3.349700e+01  3.056300e+01  1.759800e+01  0 0 0 # ODw DC
     38      10    2   0.5573  3.373900e+01  3.126100e+01  1.820800e+01  0 0 0 # Hw
     39      10    2   0.5573  3.432800e+01  3.027900e+01  1.721800e+01  0 0 0 # Hw
     40      10    3  -1.1146  3.371600e+01  3.064800e+01  1.764500e+01  0 0 0 # M
     41      11    1   1.7162  3.120700e+01  3.790300e+01  3.347200e+01  0 0 0 # ODw DC
     42      11    2   0.5573  3.080200e+01  3.876200e+01  3.335500e+01  0 0 0 # Hw
     43      11    2   0.5573  3.066400e+01  3.731000e+01  3.295400e+01  0 0 0 # Hw
     44      11    3  -1.1146  3.101300e+01  3.795800e+01  3.334200e+01  0 0 0 # M
     45      12    1   1.7162  3.795500e+01  3.059300e+01  3.809100e+01  0 0 0 # ODw DC
     46      12    2   0.5573  3.800300e+01  2.963800e+01  3.806000e+01  0 0 0 # Hw
     47      12    2   0.5573  3.703200e+01  3.078000e+01  3.826200e+01  0 0 0 # Hw
     48      12    3  -1.1146  3.777600e+01  3.043600e+01  3.812000e+01  0 0 0 # M
     49      13    1   1.7162  1.833900e+01  3.181200e+01  2.955200e+01  0 0 0 # ODw DC
     50      13    2   0.5573  1.887900e+01  3.227500e+01  2.891000e+01  0 0 0 # Hw
     51      13    2   0.5573  1.755700e+01  3.155400e+01  2.906500e+01  0 0 0 # Hw
     52      13    3  -1.1146  1.829000e+01  3.185400e+01  2.932100e+01  0 0 0 # M
     53      14    1   1.7162  2.387900e+01  3.097200e+01  1.521300e+01  0 0 0 # ODw DC
     54      14    2   0.5573  2.380900e+01  3.008900e+01  1.485100e+01  0 0 0 # Hw
     55      14    2   0.5573  2.298200e+01  3.130600e+01  1.520400e+01  0 0 0 # Hw
     56      14    3  -1.1146  2.368100e+01  3.086000e+01  1.513700e+01  0 0 0 # M
     57      15    1   1.7162  2.843700e+01  3.712000e+01  2.254200e+01  0 0 0 # ODw DC
     58      15    2   0.5573  2.932000e+01  3.727500e+01  2.220600e+01  0 0 0 # Hw
     59      15    2   0.5573  2.815200e+01  3.631900e+01  2.210300e+01  0 0 0 # Hw
     60      15    3  -1.1146  2.855900e+01  3.698800e+01  2.238300e+01  0 0 0 # M
     61      16    1   1.7162  2.729000e+01  3.939200e+01  3.694500e+01  0 0 0 # ODw DC
     62      16    2   0.5573  2.655500e+01  3.883900e+01  3.720800e+01  0 0 0 # Hw
     63      16    2   0.5573  2.688100e+01  4.015100e+01  3.652900e+01  0 0 0 # Hw
     64      16    3  -1.1146  2.705600e+01  3.943400e+01  3.691300e+01  0 0 0 # M
     65      17    1   1.7162  3.465400e+01  4.198500e+01  2.211500e+01  0 0 0 # ODw DC
     66      17    2   0.5573  3.537600e+01  4.240300e+01  2.258600e+01  0 0 0 # Hw
     67      17    2   0.5573  3.467100e+01  4.107600e+01  2.241000e+01  0 0 0 # Hw
     68      17    3  -1.1146  3.480600e+01  4.188500e+01  2.227200e+01  0 0 0 # M
     69      18    1   1.7162  2.580900e+01  3.012200e+01  2.013000e+01  0 0 0 # ODw DC
     70      18    2   0.5573  2.646900e+01  3.046600e+01  1.952700e+01  0 0 0 # Hw
     71      18    2   0.5573  2.631500e+01  2.971100e+01  2.083000e+01  0 0 0 # Hw
     72      18    3  -1.1146  2.604800e+01  3.010800e+01  2.014900e+01  0 0 0 # M
     73      19    1   1.7162  1.886000e+01  2.401200e+01  3.161700e+01  0 0 0 # ODw DC
     74      19    2   0.5573  1.949300e+01  2.436600e+01  3.099200e+01  0 0 0 # Hw
     75      19    2   0.5573  1.897000e+01  2.455200e+01  3.240000e+01  0 0 0 # Hw
     76      19    3  -1.1146  1.901300e+01  2.419500e+01  3.165000e+01  0 0 0 # M
     77      20    1   1.7162  1.489000e+01  2.673900e+01  2.564600e+01  0 0 0 # ODw DC
     78      20    2   0.5573  1.495500e+01  2.701300e+01  2.473100e+01  0 0 0 # Hw
     79      20    2   0.5573  1.576800e+01  2.642800e+01  2.586500e+01  0 0 0 # Hw
     80      20    3  -1.1146  1.508300e+01  2.673100e+01  2.550300e+01  0 0 0 # M
     81      21    1   1.7162  2.825500e+01  2.369100e+01  4.000800e+01  0 0 0 # ODw DC
     82      21    2   0.5573  2.835800e+01  2.462200e+01  4.020800e+01  0 0 0 # Hw
     83      21    2   0.5573  2.730900e+01  2.356300e+01  3.994400e+01  0 0 0 # Hw
     84      21    3  -1.1146  2.808200e+01  2.385600e+01  4.003600e+01  0 0 0 # M
     85      22    1   1.7162  2.001700e+01  3.018700e+01  3.499900e+01  0 0 0 # ODw DC
     86      22    2   0.5573  2.077900e+01  3.007300e+01  3.443100e+01  0 0 0 # Hw
     87      22    2   0.5573  2.038500e+01  3.041400e+01  3.585200e+01  0 0 0 # Hw
     88      22    3  -1.1146  2.024800e+01  3.021000e+01  3.505700e+01  0 0 0 # M
     89      23    1   1.7162  3.801400e+01  4.033500e+01  3.361100e+01  0 0 0 # ODw DC
     90      23    2   0.5573  3.851000e+01  4.061800e+01  3.438000e+01  0 0 0 # Hw
     91      23    2   0.5573  3.715600e+01  4.009200e+01  3.395500e+01  0 0 0 # Hw
     92      23    3  -1.1146  3.794000e+01  4.034300e+01  3.383900e+01  0 0 0 # M
     93      24    1   1.7162  3.741600e+01  1.919600e+01  3.416300e+01  0 0 0 # ODw DC
     94      24    2   0.5573  3.731600e+01  1.965900e+01  3.333200e+01  0 0 0 # Hw
     95      24    2   0.5573  3.783100e+01  1.983200e+01  3.474400e+01  0 0 0 # Hw
     96      24    3  -1.1146  3.748000e+01  1.942100e+01  3.411200e+01  0 0 0 # M
     97      25    1   1.7162  3.212000e+01  3.996000e+01  3.518200e+01  0 0 0 # ODw DC
     98      25    2   0.5573  3.128900e+01  4.043300e+01  3.524000e+01  0 0 0 # Hw
     99      25    2   0.5573  3.187500e+01  3.903800e+01  3.525200e+01  0 0 0 # Hw
    100      25    3  -1.1146  3.189900e+01  3.986800e+01  3.520800e+01  0 0 0 # M
    101      26    1   1.7162  2.420800e+01  3.637400e+01  3.174100e+01  0 0 0 # ODw DC
    102      26    2   0.5573  2.346500e+01  3.623800e+01  3.232800e+01  0 0 0 # Hw
    103      26    2   0.5573  2.381500e+01  3.646100e+01  3.087300e+01  0 0 0 # Hw
    104      26    3  -1.1146  2.397600e+01  3.636400e+01  3.168400e+01  0 0 0 # M
    105      27    1   1.7162  3.603200e+01  3.146300e+01  3.609200e+01  0 0 0 # ODw DC
    106      27    2   0.5573  3.561000e+01  3.060300e+01  3.606900e+01  0 0 0 # Hw
    107      27    2   0.5573  3.696800e+01  3.126900e+01  3.611900e+01  0 0 0 # Hw
    108      27    3  -1.1146  3.613700e+01  3.124700e+01  3.609300e+01  0 0 0 # M
    109      28    1   1.7162  2.201300e+01  4.373300e+01  2.889300e+01  0 0 0 # ODw DC
    110      28    2   0.5573  2.278800e+01  4.354900e+01  2.836200e+01  0 0 0 # Hw
    111      28    2   0.5573  2.225500e+01  4.345200e+01  2.977500e+01  0 0 0 # Hw
    112      28    3  -1.1146  2.222100e+01  4.363800e+01  2.896500e+01  0 0 0 # M
    113      29    1   1.7162  3.457400e+01  2.631000e+01  3.938800e+01  0 0 0 # ODw DC
    114      29    2   0.5573  3.443900e+01  2.709500e+01  3.885700e+01  0 0 0 # Hw
    115      29    2   0.5573  3.544000e+01  2.599400e+01  3.913200e+01  0 0 0 # Hw
    116      29    3  -1.1146  3.472400e+01  2.640600e+01  3.922700e+01  0 0 0 # M
    117      30    1   1.7162  2.424600e+01  3.649700e+01  4.138400e+01  0 0 0 # ODw DC
    118      30    2   0.5573  2.495600e+01  3.689700e+01  4.188600e+01  0 0 0 # Hw
    119      30    2   0.5573  2.455600e+01  3.651000e+01  4.047900e+01  0 0 0 # Hw
    120      30    3  -1.1146  2.445500e+01  3.658200e+01  4.130200e+01  0 0 0 # M
    121      31    1   1.7162  3.913300e+01  3.088900e+01  2.228000e+01  0 0 0 # ODw DC
    122      31    2   0.5573  3.818100e+01  3.098400e+01  2.229600e+01  0 0 0 # Hw
    123      31    2   0.5573  3.928100e+01  2.994600e+01  2.233100e+01  0 0 0 # Hw
    124      31    3  -1.1146  3.896800e+01  3.071600e+01  2.229400e+01  0 0 0 # M
    125      32    1   1.7162  3.531900e+01  2.485600e+01  1.654900e+01  0 0 0 # ODw DC
    126      32    2   0.5573  3.538600e+01  2.581100e+01  1.654300e+01  0 0 0 # Hw
    127      32    2   0.5573  3.443900e+01  2.467500e+01  1.622200e+01  0 0 0 # Hw
    128      32    3  -1.1146  3.515300e+01  2.501500e+01  1.648100e+01  0 0 0 # M
    129      33    1   1.7162  2.583600e+01  3.238400e+01  1.444300e+01  0 0 0 # ODw DC
    130      33    2   0.5573  2.628500e+01  3.323000e+01  1.443600e+01  0 0 0 # Hw
    131      33    2   0.5573  2.653300e+01  3.174400e+01  1.458500e+01  0 0 0 # Hw
    132      33    3  -1.1146  2.607100e+01  3.242600e+01  1.447000e+01  0 0 0 # M
    133      34    1   1.7162  2.518900e+01  2.176500e+01  2.095700e+01  0 0 0 # ODw DC
    134      34    2   0.5573  2.593900e+01  2.169200e+01  2.036700e+01  0 0 0 # Hw
    135      34    2   0.5573  2.450700e+01  2.123600e+01  2.054400e+01  0 0 0 # Hw
    136      34    3  -1.1146  2.520300e+01  2.164200e+01  2.075100e+01  0 0 0 # M
    137      35    1   1.7162  3.092600e+01  2.889300e+01  2.080600e+01  0 0 0 # ODw DC
    138      35    2   0.5573  3.061500e+01  2.979100e+01  2.068400e+01  0 0 0 # Hw
    139      35    2   0.5573  3.187800e+01  2.895800e+01  2.072900e+01  0 0 0 # Hw
    140      35    3  -1.1146  3.105700e+01  2.909000e+01  2.076500e+01  0 0 0 # M
    141      36    1   1.7162  3.068100e+01  2.293700e+01  2.478000e+01  0 0 0 # ODw DC
    142      36    2   0.5573  3.127700e+01  2.273700e+01  2.550200e+01  0 0 0 # Hw
    143      36    2   0.5573  3.121400e+01  2.343400e+01  2.416100e+01  0 0 0 # Hw
    144      36    3  -1.1146  3.091200e+01  2.299800e+01  2.480100e+01  0 0 0 # M
    145      37    1   1.7162  3.815600e+01  3.233700e+01  2.706100e+01  0 0 0 # ODw DC
    146      37    2   0.5573  3.803800e+01  3.138900e+01  2.700800e+01  0 0 0 # Hw
    147      37    2   0.5573  3.727200e+01  3.268100e+01  2.718700e+01  0 0 0 # Hw
    148      37    3  -1.1146  3.795100e+01  3.221300e+01  2.707600e+01  0 0 0 # M
    149      38    1   1.7162  3.104000e+01  3.094500e+01  3.449600e+01  0 0 0 # ODw DC
    150      38    2   0.5573  3.081700e+01  3.019200e+01  3.504300e+01  0 0 0 # Hw
    151      38    2   0.5573  3.188600e+01  3.071700e+01  3.411000e+01  0 0 0 # Hw
    152      38    3  -1.1146  3.116800e+01  3.074400e+01  3.452900e+01  0 0 0 # M
    153      39    1   1.7162  3.600500e+01  2.796300e+01  1.808400e+01  0 0 0 # ODw DC
    154      39    2   0.5573  3.557500e+01  2.880000e+01  1.826400e+01  0 0 0 # Hw
    155      39    2   0.5573  3.631500e+01  2.766600e+01  1.893900e+01  0 0 0 # Hw
    156      39    3  -1.1146  3.598100e+01  2.807400e+01  1.829600e+01  0 0 0 # M
    157      40    1   1.7162  3.790500e+01  3.659500e+01  2.788500e+01  0 0 0 # ODw DC
    158      40    2   0.5573  3.761400e+01  3.750200e+01  2.779100e+01  0 0 0 # Hw
    159      40    2   0.5573  3.718700e+01  3.616000e+01  2.834400e+01  0 0 0 # Hw
    160      40    3  -1.1146  3.769800e+01  3.669200e+01  2.796000e+01  0 0 0 # M
    161      41    1   1.7162  2.877200e+01  1.901700e+01  2.900000e+01  0 0 0 # ODw DC
    162      41    2   0.5573  2.923100e+01  1.846600e+01  2.963500e+01  0 0 0 # Hw
    163      41    2   0.5573  2.787900e+01  1.867500e+01  2.898900e+01  0 0 0 # Hw
    164      41    3  -1.1146  2.868300e+01  1.883400e+01  2.912800e+01  0 0 0 # M
    165      42    1   1.7162  1.455000e+01  3.213000e+01  2.862200e+01  0 0 0 # ODw DC
    166      42    2   0.5573  1.461200e+01  3.247200e+01  2.773100e+01  0 0 0 # Hw
    167      42    2   0.5573  1.542900e+01  3.223900e+01  2.898300e+01  0 0 0 # Hw
    168      42    3  -1.1146  1.474200e+01  3.222200e+01  2.851300e+01  0 0 0 # M
    169      43    1   1.7162  3.760700e+01  3.411300e+01  3.628100e+01  0 0 0 # ODw DC
    170      43    2   0.5573  3.756200e+01  3.462700e+01  3.708700e+01  0 0 0 # Hw
    171      43    2   0.5573  3.692300e+01  3.345200e+01  3.637900e+01  0 0 0 # Hw
    172      43    3  -1.1146  3.745800e+01  3.408300e+01  3.646600e+01  0 0 0 # M
    173      44    1   1.7162  2.255100e+01  3.654900e+01  3.849800e+01  0 0 0 # ODw DC
    174      44    2   0.5573  2.319400e+01  3.591100e+01  3.818900e+01  0 0 0 # Hw
    175      44    2   0.5573  2.306300e+01  3.717700e+01  3.900700e+01  0 0 0 # Hw
    176      44    3  -1.1146  2.278800e+01  3.654700e+01  3.853900e+01  0 0 0 # M
    177      45    1   1.7162  2.525000e+01  3.311300e+01  4.273600e+01  0 0 0 # ODw DC
    178      45    2   0.5573  2.449300e+01  3.367700e+01  4.289500e+01  0 0 0 # Hw
    179      45    2   0.5573  2.592500e+01  3.344700e+01  4.332600e+01  0 0 0 # Hw
    180      45    3  -1.1146  2.523300e+01  3.329700e+01  4.289000e+01  0 0 0 # M
    181      46    1   1.7162  3.866100e+01  2.730900e+01  2.871400e+01  0 0 0 # ODw DC
    182      46    2   0.5573  3.946900e+01  2.777300e+01  2.893500e+01  0 0 0 # Hw
    183      46    2   0.5573  3.802000e+01  2.763100e+01  2.934700e+01  0 0 0 # Hw
    184      46    3  -1.1146  3.869500e+01  2.747000e+01  2.888900e+01  0 0 0 # M
    185      47    1   1.7162  2.015400e+01  4.157400e+01  3.373800e+01  0 0 0 # ODw DC
    186      47    2   0.5573  2.001000e+01  4.109100e+01  3.455200e+01  0 0 0 # Hw
    187      47    2   0.5573  2.034500e+01  4.089900e+01  3.308900e+01  0 0 0 # Hw
    188      47    3  -1.1146  2.016400e+01  4.133700e+01  3.377200e+01  0 0 0 # M
    189      48    1   1.7162  3.548200e+01  3.736300e+01  2.728500e+01  0 0 0 # ODw DC
    190      48    2   0.5573  3.503300e+01  3.661500e+01  2.768000e+01  0 0 0 # Hw
    191      48    2   0.5573  3.493600e+01  3.760100e+01  2.653600e+01  0 0 0 # Hw
    192      48    3  -1.1146  3.527800e+01  3.725800e+01  2.721200e+01  0 0 0 # M
    193      49    1   1.7162  1.918300e+01  2.654400e+01  3.149200e+01  0 0 0 # ODw DC
    194      49    2   0.5573  1.849800e+01  2.720900e+01  3.156800e+01  0 0 0 # Hw
    195      49    2   0.5573  1.999600e+01  2.704400e+01  3.142600e+01  0 0 0 # Hw
    196      49    3  -1.1146  1.920900e+01  2.678300e+01  3.149400e+01  0 0 0 # M
    197      50    1   1.7162  2.154800e+01  3.580500e+01  2.385600e+01  0 0 0 # ODw DC
    198      50    2   0.5573  2.150400e+01  3.530000e+01  2.304400e+01  0 0 0 # Hw
    199      50    2   0.5573  2.126600e+01  3.668500e+01  2.360500e+01  0 0 0 # Hw
    200      50    3  -1.1146  2.148100e+01  3.588200e+01  2.363800e+01  0 0 0 # M
    201      51    1   1.7162  2.203100e+01  2.295600e+01  2.030700e+01  0 0 0 # ODw DC
    202      51    2   0.5573  2.218100e+01  2.390000e+01  2.036700e+01  0 0 0 # Hw
    203      51    2   0.5573  2.275500e+01  2.256700e+01  2.079600e+01  0 0 0 # Hw
    204      51    3  -1.1146  2.221000e+01  2.307000e+01  2.041900e+01  0 0 0 # M
    205      52    1   1.7162  2.366600e+01  3.525900e+01  3.436400e+01  0 0 0 # ODw DC
    206      52    2   0.5573  2.426800e+01  3.452400e+01  3.424000e+01  0 0 0 # Hw
    207      52    2   0.5573  2.280400e+01  3.489800e+01  3.416300e+01  0 0 0 # Hw
    208      52    3  -1.1146  2.361300e+01  3.503400e+01  3.429700e+01  0 0 0 # M
    209      53    1   1.7162  2.832800e+01  3.215700e+01  3.394300e+01  0 0 0 # ODw DC
    210      53    2   0.5573  2.924500e+01  3.236200e+01  3.413100e+01  0 0 0 # Hw
    211      53    2   0.5573  2.792900e+01  3.203600e+01  3.480400e+01  0 0 0 # Hw
    212      53    3  -1.1146  2.843400e+01  3.217400e+01  3.415800e+01  0 0 0 # M
    213      54    1   1.7162  1.574600e+01  2.979000e+01  3.035600e+01  0 0 0 # ODw DC
    214      54    2   0.5573  1.665000e+01  3.009500e+01  3.043500e+01  0 0 0 # Hw
    215      54    2   0.5573  1.582200e+01  2.884300e+01  3.024500e+01  0 0 0 # Hw
    216      54    3  -1.1146  1.594600e+01  2.965900e+01  3.034900e+01  0 0 0 # M
    217      55    1   1.7162  2.060500e+01  3.861200e+01  2.011800e+01  0 0 0 # ODw DC
    218      55    2   0.5573  1.967800e+01  3.848000e+01  2.031900e+01  0 0 0 # Hw
    219      55    2   0.5573  2.075700e+01  3.954100e+01  2.028600e+01  0 0 0 # Hw
    220      55    3  -1.1146  2.044600e+01  3.877500e+01  2.019300e+01  0 0 0 # M
    221      56    1   1.7162  1.592400e+01  2.417400e+01  3.295800e+01  0 0 0 # ODw DC
    222      56    2   0.5573  1.552000e+01  2.504200e+01  3.293700e+01  0 0 0 # Hw
    223      56    2   0.5573  1.686400e+01  2.434900e+01  3.300100e+01  0 0 0 # Hw
    224      56    3  -1.1146  1.603400e+01  2.438800e+01  3.296200e+01  0 0 0 # M
    225      57    1   1.7162  4.309600e+01  3.129800e+01  2.713700e+01  0 0 0 # ODw DC
    226      57    2   0.5573  4.254000e+01  3.190400e+01  2.664900e+01  0 0 0 # Hw
    227      57    2   0.5573  4.380600e+01  3.184300e+01  2.747500e+01  0 0 0 # Hw
    228      57    3  -1.1146  4.312800e+01  3.153300e+01  2.710600e+01  0 0 0 # M
    229      58    1   1.7162  3.503900e+01  2.959900e+01  3.154700e+01  0 0 0 # ODw DC
    230      58    2   0.5573  3.477300e+01  2.868100e+01  3.159200e+01  0 0 0 # Hw
    231      58    2   0.5573  3.583100e+01  2.964500e+01  3.208100e+01  0 0 0 # Hw
    232      58    3  -1.1146  3.514600e+01  2.942000e+01  3.166600e+01  0 0 0 # M
    233      59    1   1.7162  2.512700e+01  2.560900e+01  2.575900e+01  0 0 0 # ODw DC
    234      59    2   0.5573  2.512400e+01  2.465200e+01  2.579300e+01  0 0 0 # Hw
    235      59    2   0.5573  2.605300e+01  2.584700e+01  2.579400e+01  0 0 0 # Hw
    236      59    3  -1.1146  2.531600e+01  2.546200e+01  2.577400e+01  0 0 0 # M
    237      60    1   1.7162  2.855400e+01  3.464900e+01  1.832100e+01  0 0 0 # ODw DC
    238      60    2   0.5573  2.794200e+01  3.403700e+01  1.791100e+01  0 0 0 # Hw
    239      60    2   0.5573  2.941600e+01  3.436400e+01  1.801800e+01  0 0 0 # Hw
    240      60    3  -1.1146  2.860500e+01  3.446500e+01  1.817500e+01  0 0 0 # M
    241      61    1   1.7162  2.232500e+01  2.052700e+01  2.798800e+01  0 0 0 # ODw DC
    242      61    2   0.5573  2.145700e+01  2.040400e+01  2.837200e+01  0 0 0 # Hw
    243      61    2   0.5573  2.224800e+01  2.133100e+01  2.747600e+01  0 0 0 # Hw
    244      61    3  -1.1146  2.213100e+01  2.066600e+01  2.796200e+01  0 0 0 # M
    245      62    1   1.7162  2.003500e+01  2.581600e+01  3.563400e+01  0 0 0 # ODw DC
    246      62    2   0.5573  2.047200e+01  2.520600e+01  3.622800e+01  0 0 0 # Hw
    247      62    2   0.5573  1.921800e+01  2.537700e+01  3.539800e+01  0 0 0 # Hw
    248      62    3  -1.1146  1.995800e+01  2.560100e+01  3.570700e+01  0 0 0 # M
    249      63    1   1.7162  2.439400e+01  2.473500e+01  3.025200e+01  0 0 0 # ODw DC
    250      63    2   0.5573  2.532500e+01  2.459500e+01  3.007900e+01  0 0 0 # Hw
    251      63    2   0.5573  2.437600e+01  2.538700e+01  3.095300e+01  0 0 0 # Hw
    252      63    3  -1.1146  2.458100e+01  2.484000e+01  3.036000e+01  0 0 0 # M
    253      64    1   1.7162  2.136100e+01  1.856200e+01  2.957000e+01  0 0 0 # ODw DC
    254      64    2   0.5573  2.107400e+01  1.766100e+01  2.941500e+01  0 0 0 # Hw
    255      64    2   0.5573  2.227300e+01  1.857500e+01  2.928100e+01  0 0 0 # Hw
    256      64    3  -1.1146  2.148900e+01  1.838000e+01  2.947900e+01  0 0 0 # M
    257      65    1   1.7162  2.236700e+01  1.838300e+01  3.386800e+01  0 0 0 # ODw DC
    258      65    2   0.5573  2.236200e+01  1.765200e+01  3.324900e+01  0 0 0 # Hw
    259      65    2   0.5573  2.324000e+01  1.836100e+01  3.425700e+01  0 0 0 # Hw
    260      65    3  -1.1146  2.254400e+01  1.822800e+01  3.382100e+01  0 0 0 # M
    261      66    1   1.7162  2.758300e+01  3.618100e+01  2.826900e+01  0 0 0 # ODw DC
    262      66    2   0.5573  2.740300e+01  3.683100e+01  2.894900e+01  0 0 0 # Hw
    263      66    2   0.5573  2.784900e+01  3.669800e+01  2.750900e+01  0 0 0 # Hw
    264      66    3  -1.1146  2.760000e+01  3.642000e+01  2.825300e+01  0 0 0 # M
    265      67    1   1.7162  3.636800e+01  3.893700e+01  2.890200e+01  0 0 0 # ODw DC
    266      67    2   0.5573  3.633600e+01  3.904600e+01  2.985300e+01  0 0 0 # Hw
    267      67    2   0.5573  3.595800e+01  3.972900e+01  2.855700e+01  0 0 0 # Hw
    268      67    3  -1.1146  3.627700e+01  3.912100e+01  2.902600e+01  0 0 0 # M
    269      68    1   1.7162  3.027800e+01  4.483400e+01  2.704700e+01  0 0 0 # ODw DC
    270      68    2   0.5573  3.018100e+01  4.414600e+01  2.770600e+01  0 0 0 # Hw
    271      68    2   0.5573  2.974000e+01  4.454000e+01  2.631300e+01  0 0 0 # Hw
    272      68    3  -1.1146  3.014800e+01  4.463300e+01  2.703200e+01  0 0 0 # M
    273      69    1   1.7162  4.133000e+01  2.488000e+01  3.507900e+01  0 0 0 # ODw DC
    274      69    2   0.5573  4.044100e+01  2.475200e+01  3.474700e+01  0 0 0 # Hw
    275      69    2   0.5573  4.121000e+01  2.531200e+01  3.592400e+01  0 0 0 # Hw
    276      69    3  -1.1146  4.112300e+01  2.494300e+01  3.518400e+01  0 0 0 # M
    277      70    1   1.7162  2.068600e+01  2.454900e+01  2.292800e+01  0 0 0 # ODw DC
    278      70    2   0.5573  2.120100e+01  2.534300e+01  2.307800e+01  0 0 0 # Hw
    279      70    2   0.5573  2.133700e+01  2.387500e+01  2.273800e+01  0 0 0 # Hw
    280      70    3  -1.1146  2.092500e+01  2.457400e+01  2.292000e+01  0 0 0 # M
    281      71    1   1.7162  2.126200e+01  2.856600e+01  2.168700e+01  0 0 0 # ODw DC
    282      71    2   0.5573  2.165600e+01  2.769400e+01  2.164800e+01  0 0 0 # Hw
    283      71    2   0.5573  2.200700e+01  2.916500e+01  2.170900e+01  0 0 0 # Hw
    284      71    3  -1.1146  2.149500e+01  2.851000e+01  2.168400e+01  0 0 0 # M
    285      72    1   1.7162  3.049600e+01  1.831100e+01  2.782400e+01  0 0 0 # ODw DC
    286      72    2   0.5573  3.028300e+01  1.740000e+01  2.802400e+01  0 0 0 # Hw
    287      72    2   0.5573  2.994200e+01  1.852800e+01  2.707500e+01  0 0 0 # Hw
    288      72    3  -1.1146  3.033900e+01  1.816900e+01  2.771200e+01  0 0 0 # M
    289      73    1   1.7162  2.867100e+01  2.415900e+01  2.761600e+01  0 0 0 # ODw DC
    290      73    2   0.5573  2.856800e+01  2.502100e+01  2.721200e+01  0 0 0 # Hw
    291      73    2   0.5573  2.788100e+01  2.404700e+01  2.814500e+01  0 0 0 # Hw
    292      73    3  -1.1146  2.848800e+01  2.431300e+01  2.764100e+01  0 0 0 # M
    293      74    1   1.7162  1.965200e+01  2.130900e+01  3.569400e+01  0 0 0 # ODw DC
    294      74    2   0.5573  2.057600e+01  2.151600e+01  3.555300e+01  0 0 0 # Hw
    295      74    2   0.5573  1.920100e+01  2.214700e+01  3.559800e+01  0 0 0 # Hw
    296      74    3  -1.1146  1.974900e+01  2.152300e+01  3.564600e+01  0 0 0 # M
    297      75    1   1.7162  3.469800e+01  2.449600e+01  3.264600e+01  0 0 0 # ODw DC
    298      75    2   0.5573  3.431600e+01  2.392900e+01  3.331700e+01  0 0 0 # Hw
    299      75    2   0.5573  3.415700e+01  2.434700e+01  3.187100e+01  0 0 0 # Hw
    300      75    3  -1.1146  3.450900e+01  2.434900e+01  3.262500e+01  0 0 0 # M
    301      76    1   1.7162  3.040400e+01  3.299500e+01  3.025100e+01  0 0 0 # ODw DC
    302      76    2   0.5573  3.122000e+01  3.320500e+01  2.979900e+01  0 0 0 # Hw
    303      76    2   0.5573  3.006000e+01  3.384200e+01  3.053200e+01  0 0 0 # Hw
    304      76    3  -1.1146  3.050100e+01  3.321100e+01  3.021600e+01  0 0 0 # M
    305      77    1   1.7162  2.041900e+01  3.600900e+01  2.126800e+01  0 0 0 # ODw DC
    306      77    2   0.5573  1.952000e+01  3.590500e+01  2.158100e+01  0 0 0 # Hw
    307      77    2   0.5573  2.065200e+01  3.690600e+01  2.150600e+01  0 0 0 # Hw
    308      77    3  -1.1146  2.028200e+01  3.617100e+01  2.138100e+01  0 0 0 # M
    309      78    1   1.7162  2.571200e+01  3.245900e+01  2.472600e+01  0 0 0 # ODw DC
    310      78    2   0.5573  2.582500e+01  3.159700e+01  2.432500e+01  0 0 0 # Hw
    311      78    2   0.5573  2.654500e+01  3.263000e+01  2.516500e+01  0 0 0 # Hw
    312      78    3  -1.1146  2.590600e+01  3.231700e+01  2.473400e+01  0 0 0 # M
    313      79    1   1.7162  3.186900e+01  2.282400e+01  2.826800e+01  0 0 0 # ODw DC
    314      79    2   0.5573  3.138600e+01  2.356900e+01  2.791000e+01  0 0 0 # Hw
    315      79    2   0.5573  3.199600e+01  2.224000e+01  2.752100e+01  0 0 0 # Hw
    316      79    3  -1.1146  3.179600e+01  2.285700e+01  2.804200e+01  0 0 0 # M
    317      80    1   1.7162  2.981700e+01  2.599200e+01  2.260400e+01  0 0 0 # ODw DC
    318      80    2   0.5573  3.031000e+01  2.517500e+01  2.267600e+01  0 0 0 # Hw
    319      80    2   0.5573  3.048000e+01  2.665800e+01  2.242800e+01  0 0 0 # Hw
    320      80    3  -1.1146  3.005400e+01  2.596100e+01  2.258300e+01  0 0 0 # M
    321      81    1   1.7162  3.944000e+01  3.296900e+01  3.668900e+01  0 0 0 # ODw DC
    322      81    2   0.5573  3.875100e+01  3.232500e+01  3.685500e+01  0 0 0 # Hw
    323      81    2   0.5573  4.008700e+01  3.249700e+01  3.616500e+01  0 0 0 # Hw
    324      81    3  -1.1146  3.943100e+01  3.274100e+01  3.661600e+01  0 0 0 # M
    325      82    1   1.7162  3.809000e+01  2.212200e+01  3.720600e+01  0 0 0 # ODw DC
    326      82    2   0.5573  3.741700e+01  2.176100e+01  3.778200e+01  0 0 0 # Hw
    327      82    2   0.5573  3.819600e+01  2.146400e+01  3.651900e+01  0 0 0 # Hw
    328      82    3  -1.1146  3.797400e+01  2.191300e+01  3.718300e+01  0 0 0 # M
    329      83    1   1.7162  2.364900e+01  4.394500e+01  3.272600e+01  0 0 0 # ODw DC
    330      83    2   0.5573  2.317400e+01  4.311500e+01  3.269100e+01  0 0 0 # Hw
    331      83    2   0.5573  2.457100e+01  4.369200e+01  3.275900e+01  0 0 0 # Hw
    332      83    3  -1.1146  2.374000e+01  4.372300e+01  3.272600e+01  0 0 0 # M
    333      84    1   1.7162  3.375700e+01  2.875600e+01  2.213400e+01  0 0 0 # ODw DC
    334      84    2   0.5573  3.441700e+01  2.944800e+01  2.218200e+01  0 0 0 # Hw
    335      84    2   0.5573  3.425900e+01  2.794300e+01  2.218800e+01  0 0 0 # Hw
    336      84    3  -1.1146  3.399500e+01  2.873100e+01  2.215500e+01  0 0 0 # M
    337      85    1   1.7162  3.920200e+01  2.412000e+01  2.557500e+01  0 0 0 # ODw DC
    338      85    2   0.5573  3.839500e+01  2.463400e+01  2.554500e+01  0 0 0 # Hw
    339      85    2   0.5573  3.890600e+01  2.321100e+01  2.560400e+01  0 0 0 # Hw
    340      85    3  -1.1146  3.897600e+01  2.404000e+01  2.557500e+01  0 0 0 # M
    341      86    1   1.7162  2.629300e+01  3.197500e+01  2.143400e+01  0 0 0 # ODw DC
    342      86    2   0.5573  2.719400e+01  3.166600e+01  2.134100e+01  0 0 0 # Hw
    343      86    2   0.5573  2.592600e+01  3.143800e+01  2.213500e+01  0 0 0 # Hw
    344      86    3  -1.1146  2.640200e+01  3.180200e+01  2.155800e+01  0 0 0 # M
    345      87    1   1.7162  2.561500e+01  2.075700e+01  3.991700e+01  0 0 0 # ODw DC
    346      87    2   0.5573  2.633400e+01  2.127700e+01  3.955800e+01  0 0 0 # Hw
    347      87    2   0.5573  2.493500e+01  2.139800e+01  4.012200e+01  0 0 0 # Hw